0.00000  0  0  5  0  cwnd_ 1.000 
0.00000  1  0  5  1  cwnd_ 1.000 
0.00000  2  0  5  2  cwnd_ 1.000 
0.00000  3  0  5  3  cwnd_ 1.000 
V -t * -v 1.0a5 -a 0
A -t * -n 1 -p 0 -o 0x7fffffff -c 30 -a 1
A -t * -h 1 -m 1073741823 -s 0
c -t * -i 4 -n yellow
c -t * -i 1 -n red
c -t * -i 2 -n green
c -t * -i 3 -n blue
n -t * -a 4 -s 4 -S UP -v box -c black -i black
n -t * -a 0 -s 0 -S UP -v circle -c black -i black
n -t * -a 5 -s 5 -S UP -v hexagon -c black -i black
n -t * -a 1 -s 1 -S UP -v circle -c black -i black
n -t * -a 2 -s 2 -S UP -v circle -c black -i black
n -t * -a 3 -s 3 -S UP -v circle -c black -i black
l -t * -s 0 -d 4 -S UP -r 5000000 -D 0.050000000000000003 -c black -o down-right
l -t * -s 1 -d 4 -S UP -r 5000000 -D 0.050000000000000003 -c black -o right
l -t * -s 2 -d 4 -S UP -r 5000000 -D 0.050000000000000003 -c black -o up-right
l -t * -s 3 -d 4 -S UP -r 5000000 -D 0.050000000000000003 -c black -o up
l -t * -s 4 -d 5 -S UP -r 300000 -D 0.050000000000000003 -c black -o right
q -t * -s 4 -d 2 -a 0.5
q -t * -s 2 -d 4 -a 0.5
q -t * -s 4 -d 3 -a 0.5
q -t * -s 3 -d 4 -a 0.5
q -t * -s 4 -d 0 -a 0.1
q -t * -s 0 -d 4 -a 0.1
q -t * -s 5 -d 4 -a 0.5
q -t * -s 4 -d 5 -a 0.5
q -t * -s 4 -d 1 -a 0.1
q -t * -s 1 -d 4 -a 0.1
a -t 0 -s 1 -d 5 -n tcp1
a -t 0 -s 2 -d 5 -n tcp2
a -t 0 -s 3 -d 5 -n tcp3
a -t 0 -s 0 -d 5 -n tcp
n -t 0 -s 0 -S DLABEL -l "Client1" -L ""
n -t 0 -s 1 -S DLABEL -l "Client2" -L ""
n -t 0 -s 2 -S DLABEL -l "Client3" -L ""
n -t 0 -s 3 -S DLABEL -l "Client4" -L ""
n -t 0 -s 4 -S DLABEL -l "Router" -L ""
n -t 0 -s 5 -S DLABEL -l "Server" -L ""
+ -t 0.5 -s 0 -d 4 -p tcp -e 40 -c 1 -i 0 -a 1 -x {0.0 5.0 0 ------- null}
- -t 0.5 -s 0 -d 4 -p tcp -e 40 -c 1 -i 0 -a 1 -x {0.0 5.0 0 ------- null}
h -t 0.5 -s 0 -d 4 -p tcp -e 40 -c 1 -i 0 -a 1 -x {0.0 5.0 -1 ------- null}
r -t 0.550064 -s 0 -d 4 -p tcp -e 40 -c 1 -i 0 -a 1 -x {0.0 5.0 0 ------- null}
+ -t 0.550064 -s 4 -d 5 -p tcp -e 40 -c 1 -i 0 -a 1 -x {0.0 5.0 0 ------- null}
- -t 0.550064 -s 4 -d 5 -p tcp -e 40 -c 1 -i 0 -a 1 -x {0.0 5.0 0 ------- null}
h -t 0.550064 -s 4 -d 5 -p tcp -e 40 -c 1 -i 0 -a 1 -x {0.0 5.0 -1 ------- null}
+ -t 0.58 -s 1 -d 4 -p tcp -e 40 -c 2 -i 1 -a 2 -x {1.0 5.1 0 ------- null}
- -t 0.58 -s 1 -d 4 -p tcp -e 40 -c 2 -i 1 -a 2 -x {1.0 5.1 0 ------- null}
h -t 0.58 -s 1 -d 4 -p tcp -e 40 -c 2 -i 1 -a 2 -x {1.0 5.1 -1 ------- null}
+ -t 0.6 -s 3 -d 4 -p tcp -e 40 -c 4 -i 2 -a 4 -x {3.0 5.3 0 ------- null}
- -t 0.6 -s 3 -d 4 -p tcp -e 40 -c 4 -i 2 -a 4 -x {3.0 5.3 0 ------- null}
h -t 0.6 -s 3 -d 4 -p tcp -e 40 -c 4 -i 2 -a 4 -x {3.0 5.3 -1 ------- null}
r -t 0.601130666666667 -s 4 -d 5 -p tcp -e 40 -c 1 -i 0 -a 1 -x {0.0 5.0 0 ------- null}
+ -t 0.601130666666667 -s 5 -d 4 -p ack -e 40 -c 1 -i 3 -a 1 -x {5.0 0.0 0 ------- null}
- -t 0.601130666666667 -s 5 -d 4 -p ack -e 40 -c 1 -i 3 -a 1 -x {5.0 0.0 0 ------- null}
h -t 0.601130666666667 -s 5 -d 4 -p ack -e 40 -c 1 -i 3 -a 1 -x {5.0 0.0 -1 ------- null}
r -t 0.630064 -s 1 -d 4 -p tcp -e 40 -c 2 -i 1 -a 2 -x {1.0 5.1 0 ------- null}
+ -t 0.630064 -s 4 -d 5 -p tcp -e 40 -c 2 -i 1 -a 2 -x {1.0 5.1 0 ------- null}
- -t 0.630064 -s 4 -d 5 -p tcp -e 40 -c 2 -i 1 -a 2 -x {1.0 5.1 0 ------- null}
h -t 0.630064 -s 4 -d 5 -p tcp -e 40 -c 2 -i 1 -a 2 -x {1.0 5.1 -1 ------- null}
+ -t 0.65 -s 2 -d 4 -p tcp -e 40 -c 3 -i 4 -a 3 -x {2.0 5.2 0 ------- null}
- -t 0.65 -s 2 -d 4 -p tcp -e 40 -c 3 -i 4 -a 3 -x {2.0 5.2 0 ------- null}
h -t 0.65 -s 2 -d 4 -p tcp -e 40 -c 3 -i 4 -a 3 -x {2.0 5.2 -1 ------- null}
r -t 0.650064 -s 3 -d 4 -p tcp -e 40 -c 4 -i 2 -a 4 -x {3.0 5.3 0 ------- null}
+ -t 0.650064 -s 4 -d 5 -p tcp -e 40 -c 4 -i 2 -a 4 -x {3.0 5.3 0 ------- null}
- -t 0.650064 -s 4 -d 5 -p tcp -e 40 -c 4 -i 2 -a 4 -x {3.0 5.3 0 ------- null}
h -t 0.650064 -s 4 -d 5 -p tcp -e 40 -c 4 -i 2 -a 4 -x {3.0 5.3 -1 ------- null}
r -t 0.652197333333333 -s 5 -d 4 -p ack -e 40 -c 1 -i 3 -a 1 -x {5.0 0.0 0 ------- null}
+ -t 0.652197333333333 -s 4 -d 0 -p ack -e 40 -c 1 -i 3 -a 1 -x {5.0 0.0 0 ------- null}
- -t 0.652197333333333 -s 4 -d 0 -p ack -e 40 -c 1 -i 3 -a 1 -x {5.0 0.0 0 ------- null}
h -t 0.652197333333333 -s 4 -d 0 -p ack -e 40 -c 1 -i 3 -a 1 -x {5.0 0.0 -1 ------- null}
r -t 0.681130666666667 -s 4 -d 5 -p tcp -e 40 -c 2 -i 1 -a 2 -x {1.0 5.1 0 ------- null}
+ -t 0.681130666666667 -s 5 -d 4 -p ack -e 40 -c 2 -i 5 -a 2 -x {5.1 1.0 0 ------- null}
- -t 0.681130666666667 -s 5 -d 4 -p ack -e 40 -c 2 -i 5 -a 2 -x {5.1 1.0 0 ------- null}
h -t 0.681130666666667 -s 5 -d 4 -p ack -e 40 -c 2 -i 5 -a 2 -x {5.1 1.0 -1 ------- null}
r -t 0.700064 -s 2 -d 4 -p tcp -e 40 -c 3 -i 4 -a 3 -x {2.0 5.2 0 ------- null}
+ -t 0.700064 -s 4 -d 5 -p tcp -e 40 -c 3 -i 4 -a 3 -x {2.0 5.2 0 ------- null}
- -t 0.700064 -s 4 -d 5 -p tcp -e 40 -c 3 -i 4 -a 3 -x {2.0 5.2 0 ------- null}
h -t 0.700064 -s 4 -d 5 -p tcp -e 40 -c 3 -i 4 -a 3 -x {2.0 5.2 -1 ------- null}
r -t 0.701130666666667 -s 4 -d 5 -p tcp -e 40 -c 4 -i 2 -a 4 -x {3.0 5.3 0 ------- null}
+ -t 0.701130666666667 -s 5 -d 4 -p ack -e 40 -c 4 -i 6 -a 4 -x {5.3 3.0 0 ------- null}
- -t 0.701130666666667 -s 5 -d 4 -p ack -e 40 -c 4 -i 6 -a 4 -x {5.3 3.0 0 ------- null}
h -t 0.701130666666667 -s 5 -d 4 -p ack -e 40 -c 4 -i 6 -a 4 -x {5.3 3.0 -1 ------- null}
r -t 0.702261333333333 -s 4 -d 0 -p ack -e 40 -c 1 -i 3 -a 1 -x {5.0 0.0 0 ------- null}
0.70226  0  0  5  0  cwnd_ 2.000 
+ -t 0.702261333333333 -s 0 -d 4 -p tcp -e 1040 -c 1 -i 7 -a 1 -x {0.0 5.0 1 ------- null}
- -t 0.702261333333333 -s 0 -d 4 -p tcp -e 1040 -c 1 -i 7 -a 1 -x {0.0 5.0 1 ------- null}
h -t 0.702261333333333 -s 0 -d 4 -p tcp -e 1040 -c 1 -i 7 -a 1 -x {0.0 5.0 -1 ------- null}
+ -t 0.702261333333333 -s 0 -d 4 -p tcp -e 1040 -c 1 -i 8 -a 1 -x {0.0 5.0 2 ------- null}
- -t 0.703925333333333 -s 0 -d 4 -p tcp -e 1040 -c 1 -i 8 -a 1 -x {0.0 5.0 2 ------- null}
h -t 0.703925333333333 -s 0 -d 4 -p tcp -e 1040 -c 1 -i 8 -a 1 -x {0.0 5.0 -1 ------- null}
r -t 0.732197333333333 -s 5 -d 4 -p ack -e 40 -c 2 -i 5 -a 2 -x {5.1 1.0 0 ------- null}
+ -t 0.732197333333333 -s 4 -d 1 -p ack -e 40 -c 2 -i 5 -a 2 -x {5.1 1.0 0 ------- null}
- -t 0.732197333333333 -s 4 -d 1 -p ack -e 40 -c 2 -i 5 -a 2 -x {5.1 1.0 0 ------- null}
h -t 0.732197333333333 -s 4 -d 1 -p ack -e 40 -c 2 -i 5 -a 2 -x {5.1 1.0 -1 ------- null}
r -t 0.751130666666667 -s 4 -d 5 -p tcp -e 40 -c 3 -i 4 -a 3 -x {2.0 5.2 0 ------- null}
+ -t 0.751130666666667 -s 5 -d 4 -p ack -e 40 -c 3 -i 9 -a 3 -x {5.2 2.0 0 ------- null}
- -t 0.751130666666667 -s 5 -d 4 -p ack -e 40 -c 3 -i 9 -a 3 -x {5.2 2.0 0 ------- null}
h -t 0.751130666666667 -s 5 -d 4 -p ack -e 40 -c 3 -i 9 -a 3 -x {5.2 2.0 -1 ------- null}
r -t 0.752197333333333 -s 5 -d 4 -p ack -e 40 -c 4 -i 6 -a 4 -x {5.3 3.0 0 ------- null}
+ -t 0.752197333333333 -s 4 -d 3 -p ack -e 40 -c 4 -i 6 -a 4 -x {5.3 3.0 0 ------- null}
- -t 0.752197333333333 -s 4 -d 3 -p ack -e 40 -c 4 -i 6 -a 4 -x {5.3 3.0 0 ------- null}
h -t 0.752197333333333 -s 4 -d 3 -p ack -e 40 -c 4 -i 6 -a 4 -x {5.3 3.0 -1 ------- null}
r -t 0.753925333333333 -s 0 -d 4 -p tcp -e 1040 -c 1 -i 7 -a 1 -x {0.0 5.0 1 ------- null}
+ -t 0.753925333333333 -s 4 -d 5 -p tcp -e 1040 -c 1 -i 7 -a 1 -x {0.0 5.0 1 ------- null}
- -t 0.753925333333333 -s 4 -d 5 -p tcp -e 1040 -c 1 -i 7 -a 1 -x {0.0 5.0 1 ------- null}
h -t 0.753925333333333 -s 4 -d 5 -p tcp -e 1040 -c 1 -i 7 -a 1 -x {0.0 5.0 -1 ------- null}
r -t 0.755589333333333 -s 0 -d 4 -p tcp -e 1040 -c 1 -i 8 -a 1 -x {0.0 5.0 2 ------- null}
+ -t 0.755589333333333 -s 4 -d 5 -p tcp -e 1040 -c 1 -i 8 -a 1 -x {0.0 5.0 2 ------- null}
- -t 0.781658666666667 -s 4 -d 5 -p tcp -e 1040 -c 1 -i 8 -a 1 -x {0.0 5.0 2 ------- null}
h -t 0.781658666666667 -s 4 -d 5 -p tcp -e 1040 -c 1 -i 8 -a 1 -x {0.0 5.0 -1 ------- null}
r -t 0.782261333333333 -s 4 -d 1 -p ack -e 40 -c 2 -i 5 -a 2 -x {5.1 1.0 0 ------- null}
0.78226  1  0  5  1  cwnd_ 2.000 
+ -t 0.782261333333333 -s 1 -d 4 -p tcp -e 1040 -c 2 -i 10 -a 2 -x {1.0 5.1 1 ------- null}
- -t 0.782261333333333 -s 1 -d 4 -p tcp -e 1040 -c 2 -i 10 -a 2 -x {1.0 5.1 1 ------- null}
h -t 0.782261333333333 -s 1 -d 4 -p tcp -e 1040 -c 2 -i 10 -a 2 -x {1.0 5.1 -1 ------- null}
+ -t 0.782261333333333 -s 1 -d 4 -p tcp -e 1040 -c 2 -i 11 -a 2 -x {1.0 5.1 2 ------- null}
- -t 0.783925333333333 -s 1 -d 4 -p tcp -e 1040 -c 2 -i 11 -a 2 -x {1.0 5.1 2 ------- null}
h -t 0.783925333333333 -s 1 -d 4 -p tcp -e 1040 -c 2 -i 11 -a 2 -x {1.0 5.1 -1 ------- null}
r -t 0.802197333333333 -s 5 -d 4 -p ack -e 40 -c 3 -i 9 -a 3 -x {5.2 2.0 0 ------- null}
+ -t 0.802197333333333 -s 4 -d 2 -p ack -e 40 -c 3 -i 9 -a 3 -x {5.2 2.0 0 ------- null}
- -t 0.802197333333333 -s 4 -d 2 -p ack -e 40 -c 3 -i 9 -a 3 -x {5.2 2.0 0 ------- null}
h -t 0.802197333333333 -s 4 -d 2 -p ack -e 40 -c 3 -i 9 -a 3 -x {5.2 2.0 -1 ------- null}
r -t 0.802261333333333 -s 4 -d 3 -p ack -e 40 -c 4 -i 6 -a 4 -x {5.3 3.0 0 ------- null}
0.80226  3  0  5  3  cwnd_ 2.000 
+ -t 0.802261333333333 -s 3 -d 4 -p tcp -e 1040 -c 4 -i 12 -a 4 -x {3.0 5.3 1 ------- null}
- -t 0.802261333333333 -s 3 -d 4 -p tcp -e 1040 -c 4 -i 12 -a 4 -x {3.0 5.3 1 ------- null}
h -t 0.802261333333333 -s 3 -d 4 -p tcp -e 1040 -c 4 -i 12 -a 4 -x {3.0 5.3 -1 ------- null}
+ -t 0.802261333333333 -s 3 -d 4 -p tcp -e 1040 -c 4 -i 13 -a 4 -x {3.0 5.3 2 ------- null}
- -t 0.803925333333333 -s 3 -d 4 -p tcp -e 1040 -c 4 -i 13 -a 4 -x {3.0 5.3 2 ------- null}
h -t 0.803925333333333 -s 3 -d 4 -p tcp -e 1040 -c 4 -i 13 -a 4 -x {3.0 5.3 -1 ------- null}
r -t 0.831658666666667 -s 4 -d 5 -p tcp -e 1040 -c 1 -i 7 -a 1 -x {0.0 5.0 1 ------- null}
+ -t 0.831658666666667 -s 5 -d 4 -p ack -e 40 -c 1 -i 14 -a 1 -x {5.0 0.0 1 ------- null}
- -t 0.831658666666667 -s 5 -d 4 -p ack -e 40 -c 1 -i 14 -a 1 -x {5.0 0.0 1 ------- null}
h -t 0.831658666666667 -s 5 -d 4 -p ack -e 40 -c 1 -i 14 -a 1 -x {5.0 0.0 -1 ------- null}
r -t 0.833925333333333 -s 1 -d 4 -p tcp -e 1040 -c 2 -i 10 -a 2 -x {1.0 5.1 1 ------- null}
+ -t 0.833925333333333 -s 4 -d 5 -p tcp -e 1040 -c 2 -i 10 -a 2 -x {1.0 5.1 1 ------- null}
- -t 0.833925333333333 -s 4 -d 5 -p tcp -e 1040 -c 2 -i 10 -a 2 -x {1.0 5.1 1 ------- null}
h -t 0.833925333333333 -s 4 -d 5 -p tcp -e 1040 -c 2 -i 10 -a 2 -x {1.0 5.1 -1 ------- null}
r -t 0.835589333333333 -s 1 -d 4 -p tcp -e 1040 -c 2 -i 11 -a 2 -x {1.0 5.1 2 ------- null}
+ -t 0.835589333333333 -s 4 -d 5 -p tcp -e 1040 -c 2 -i 11 -a 2 -x {1.0 5.1 2 ------- null}
r -t 0.852261333333333 -s 4 -d 2 -p ack -e 40 -c 3 -i 9 -a 3 -x {5.2 2.0 0 ------- null}
0.85226  2  0  5  2  cwnd_ 2.000 
+ -t 0.852261333333333 -s 2 -d 4 -p tcp -e 1040 -c 3 -i 15 -a 3 -x {2.0 5.2 1 ------- null}
- -t 0.852261333333333 -s 2 -d 4 -p tcp -e 1040 -c 3 -i 15 -a 3 -x {2.0 5.2 1 ------- null}
h -t 0.852261333333333 -s 2 -d 4 -p tcp -e 1040 -c 3 -i 15 -a 3 -x {2.0 5.2 -1 ------- null}
+ -t 0.852261333333333 -s 2 -d 4 -p tcp -e 1040 -c 3 -i 16 -a 3 -x {2.0 5.2 2 ------- null}
r -t 0.853925333333333 -s 3 -d 4 -p tcp -e 1040 -c 4 -i 12 -a 4 -x {3.0 5.3 1 ------- null}
+ -t 0.853925333333333 -s 4 -d 5 -p tcp -e 1040 -c 4 -i 12 -a 4 -x {3.0 5.3 1 ------- null}
- -t 0.853925333333333 -s 2 -d 4 -p tcp -e 1040 -c 3 -i 16 -a 3 -x {2.0 5.2 2 ------- null}
h -t 0.853925333333333 -s 2 -d 4 -p tcp -e 1040 -c 3 -i 16 -a 3 -x {2.0 5.2 -1 ------- null}
r -t 0.855589333333333 -s 3 -d 4 -p tcp -e 1040 -c 4 -i 13 -a 4 -x {3.0 5.3 2 ------- null}
+ -t 0.855589333333333 -s 4 -d 5 -p tcp -e 1040 -c 4 -i 13 -a 4 -x {3.0 5.3 2 ------- null}
r -t 0.859392 -s 4 -d 5 -p tcp -e 1040 -c 1 -i 8 -a 1 -x {0.0 5.0 2 ------- null}
+ -t 0.859392 -s 5 -d 4 -p ack -e 40 -c 1 -i 17 -a 1 -x {5.0 0.0 2 ------- null}
- -t 0.859392 -s 5 -d 4 -p ack -e 40 -c 1 -i 17 -a 1 -x {5.0 0.0 2 ------- null}
h -t 0.859392 -s 5 -d 4 -p ack -e 40 -c 1 -i 17 -a 1 -x {5.0 0.0 -1 ------- null}
- -t 0.861658666666667 -s 4 -d 5 -p tcp -e 1040 -c 2 -i 11 -a 2 -x {1.0 5.1 2 ------- null}
h -t 0.861658666666667 -s 4 -d 5 -p tcp -e 1040 -c 2 -i 11 -a 2 -x {1.0 5.1 -1 ------- null}
r -t 0.882725333333333 -s 5 -d 4 -p ack -e 40 -c 1 -i 14 -a 1 -x {5.0 0.0 1 ------- null}
+ -t 0.882725333333333 -s 4 -d 0 -p ack -e 40 -c 1 -i 14 -a 1 -x {5.0 0.0 1 ------- null}
- -t 0.882725333333333 -s 4 -d 0 -p ack -e 40 -c 1 -i 14 -a 1 -x {5.0 0.0 1 ------- null}
h -t 0.882725333333333 -s 4 -d 0 -p ack -e 40 -c 1 -i 14 -a 1 -x {5.0 0.0 -1 ------- null}
- -t 0.889392 -s 4 -d 5 -p tcp -e 1040 -c 4 -i 12 -a 4 -x {3.0 5.3 1 ------- null}
h -t 0.889392 -s 4 -d 5 -p tcp -e 1040 -c 4 -i 12 -a 4 -x {3.0 5.3 -1 ------- null}
r -t 0.903925333333333 -s 2 -d 4 -p tcp -e 1040 -c 3 -i 15 -a 3 -x {2.0 5.2 1 ------- null}
+ -t 0.903925333333333 -s 4 -d 5 -p tcp -e 1040 -c 3 -i 15 -a 3 -x {2.0 5.2 1 ------- null}
r -t 0.905589333333333 -s 2 -d 4 -p tcp -e 1040 -c 3 -i 16 -a 3 -x {2.0 5.2 2 ------- null}
+ -t 0.905589333333333 -s 4 -d 5 -p tcp -e 1040 -c 3 -i 16 -a 3 -x {2.0 5.2 2 ------- null}
r -t 0.910458666666667 -s 5 -d 4 -p ack -e 40 -c 1 -i 17 -a 1 -x {5.0 0.0 2 ------- null}
+ -t 0.910458666666667 -s 4 -d 0 -p ack -e 40 -c 1 -i 17 -a 1 -x {5.0 0.0 2 ------- null}
- -t 0.910458666666667 -s 4 -d 0 -p ack -e 40 -c 1 -i 17 -a 1 -x {5.0 0.0 2 ------- null}
h -t 0.910458666666667 -s 4 -d 0 -p ack -e 40 -c 1 -i 17 -a 1 -x {5.0 0.0 -1 ------- null}
r -t 0.911658666666667 -s 4 -d 5 -p tcp -e 1040 -c 2 -i 10 -a 2 -x {1.0 5.1 1 ------- null}
+ -t 0.911658666666667 -s 5 -d 4 -p ack -e 40 -c 2 -i 18 -a 2 -x {5.1 1.0 1 ------- null}
- -t 0.911658666666667 -s 5 -d 4 -p ack -e 40 -c 2 -i 18 -a 2 -x {5.1 1.0 1 ------- null}
h -t 0.911658666666667 -s 5 -d 4 -p ack -e 40 -c 2 -i 18 -a 2 -x {5.1 1.0 -1 ------- null}
- -t 0.917125333333334 -s 4 -d 5 -p tcp -e 1040 -c 4 -i 13 -a 4 -x {3.0 5.3 2 ------- null}
h -t 0.917125333333334 -s 4 -d 5 -p tcp -e 1040 -c 4 -i 13 -a 4 -x {3.0 5.3 -1 ------- null}
r -t 0.932789333333333 -s 4 -d 0 -p ack -e 40 -c 1 -i 14 -a 1 -x {5.0 0.0 1 ------- null}
0.93279  0  0  5  0  cwnd_ 3.000 
+ -t 0.932789333333333 -s 0 -d 4 -p tcp -e 1040 -c 1 -i 19 -a 1 -x {0.0 5.0 3 ------- null}
- -t 0.932789333333333 -s 0 -d 4 -p tcp -e 1040 -c 1 -i 19 -a 1 -x {0.0 5.0 3 ------- null}
h -t 0.932789333333333 -s 0 -d 4 -p tcp -e 1040 -c 1 -i 19 -a 1 -x {0.0 5.0 -1 ------- null}
+ -t 0.932789333333333 -s 0 -d 4 -p tcp -e 1040 -c 1 -i 20 -a 1 -x {0.0 5.0 4 ------- null}
- -t 0.934453333333333 -s 0 -d 4 -p tcp -e 1040 -c 1 -i 20 -a 1 -x {0.0 5.0 4 ------- null}
h -t 0.934453333333333 -s 0 -d 4 -p tcp -e 1040 -c 1 -i 20 -a 1 -x {0.0 5.0 -1 ------- null}
r -t 0.939392 -s 4 -d 5 -p tcp -e 1040 -c 2 -i 11 -a 2 -x {1.0 5.1 2 ------- null}
+ -t 0.939392 -s 5 -d 4 -p ack -e 40 -c 2 -i 21 -a 2 -x {5.1 1.0 2 ------- null}
- -t 0.939392 -s 5 -d 4 -p ack -e 40 -c 2 -i 21 -a 2 -x {5.1 1.0 2 ------- null}
h -t 0.939392 -s 5 -d 4 -p ack -e 40 -c 2 -i 21 -a 2 -x {5.1 1.0 -1 ------- null}
- -t 0.944858666666667 -s 4 -d 5 -p tcp -e 1040 -c 3 -i 15 -a 3 -x {2.0 5.2 1 ------- null}
h -t 0.944858666666667 -s 4 -d 5 -p tcp -e 1040 -c 3 -i 15 -a 3 -x {2.0 5.2 -1 ------- null}
r -t 0.960522666666667 -s 4 -d 0 -p ack -e 40 -c 1 -i 17 -a 1 -x {5.0 0.0 2 ------- null}
0.96052  0  0  5  0  cwnd_ 4.000 
+ -t 0.960522666666667 -s 0 -d 4 -p tcp -e 1040 -c 1 -i 22 -a 1 -x {0.0 5.0 5 ------- null}
- -t 0.960522666666667 -s 0 -d 4 -p tcp -e 1040 -c 1 -i 22 -a 1 -x {0.0 5.0 5 ------- null}
h -t 0.960522666666667 -s 0 -d 4 -p tcp -e 1040 -c 1 -i 22 -a 1 -x {0.0 5.0 -1 ------- null}
+ -t 0.960522666666667 -s 0 -d 4 -p tcp -e 1040 -c 1 -i 23 -a 1 -x {0.0 5.0 6 ------- null}
- -t 0.962186666666667 -s 0 -d 4 -p tcp -e 1040 -c 1 -i 23 -a 1 -x {0.0 5.0 6 ------- null}
h -t 0.962186666666667 -s 0 -d 4 -p tcp -e 1040 -c 1 -i 23 -a 1 -x {0.0 5.0 -1 ------- null}
r -t 0.962725333333333 -s 5 -d 4 -p ack -e 40 -c 2 -i 18 -a 2 -x {5.1 1.0 1 ------- null}
+ -t 0.962725333333333 -s 4 -d 1 -p ack -e 40 -c 2 -i 18 -a 2 -x {5.1 1.0 1 ------- null}
- -t 0.962725333333333 -s 4 -d 1 -p ack -e 40 -c 2 -i 18 -a 2 -x {5.1 1.0 1 ------- null}
h -t 0.962725333333333 -s 4 -d 1 -p ack -e 40 -c 2 -i 18 -a 2 -x {5.1 1.0 -1 ------- null}
r -t 0.967125333333334 -s 4 -d 5 -p tcp -e 1040 -c 4 -i 12 -a 4 -x {3.0 5.3 1 ------- null}
+ -t 0.967125333333334 -s 5 -d 4 -p ack -e 40 -c 4 -i 24 -a 4 -x {5.3 3.0 1 ------- null}
- -t 0.967125333333334 -s 5 -d 4 -p ack -e 40 -c 4 -i 24 -a 4 -x {5.3 3.0 1 ------- null}
h -t 0.967125333333334 -s 5 -d 4 -p ack -e 40 -c 4 -i 24 -a 4 -x {5.3 3.0 -1 ------- null}
- -t 0.972592 -s 4 -d 5 -p tcp -e 1040 -c 3 -i 16 -a 3 -x {2.0 5.2 2 ------- null}
h -t 0.972592 -s 4 -d 5 -p tcp -e 1040 -c 3 -i 16 -a 3 -x {2.0 5.2 -1 ------- null}
r -t 0.984453333333334 -s 0 -d 4 -p tcp -e 1040 -c 1 -i 19 -a 1 -x {0.0 5.0 3 ------- null}
+ -t 0.984453333333334 -s 4 -d 5 -p tcp -e 1040 -c 1 -i 19 -a 1 -x {0.0 5.0 3 ------- null}
r -t 0.986117333333334 -s 0 -d 4 -p tcp -e 1040 -c 1 -i 20 -a 1 -x {0.0 5.0 4 ------- null}
+ -t 0.986117333333334 -s 4 -d 5 -p tcp -e 1040 -c 1 -i 20 -a 1 -x {0.0 5.0 4 ------- null}
r -t 0.990458666666667 -s 5 -d 4 -p ack -e 40 -c 2 -i 21 -a 2 -x {5.1 1.0 2 ------- null}
+ -t 0.990458666666667 -s 4 -d 1 -p ack -e 40 -c 2 -i 21 -a 2 -x {5.1 1.0 2 ------- null}
- -t 0.990458666666667 -s 4 -d 1 -p ack -e 40 -c 2 -i 21 -a 2 -x {5.1 1.0 2 ------- null}
h -t 0.990458666666667 -s 4 -d 1 -p ack -e 40 -c 2 -i 21 -a 2 -x {5.1 1.0 -1 ------- null}
r -t 0.994858666666667 -s 4 -d 5 -p tcp -e 1040 -c 4 -i 13 -a 4 -x {3.0 5.3 2 ------- null}
+ -t 0.994858666666667 -s 5 -d 4 -p ack -e 40 -c 4 -i 25 -a 4 -x {5.3 3.0 2 ------- null}
- -t 0.994858666666667 -s 5 -d 4 -p ack -e 40 -c 4 -i 25 -a 4 -x {5.3 3.0 2 ------- null}
h -t 0.994858666666667 -s 5 -d 4 -p ack -e 40 -c 4 -i 25 -a 4 -x {5.3 3.0 -1 ------- null}
- -t 1.00032533333333 -s 4 -d 5 -p tcp -e 1040 -c 1 -i 19 -a 1 -x {0.0 5.0 3 ------- null}
h -t 1.00032533333333 -s 4 -d 5 -p tcp -e 1040 -c 1 -i 19 -a 1 -x {0.0 5.0 -1 ------- null}
r -t 1.01218666666667 -s 0 -d 4 -p tcp -e 1040 -c 1 -i 22 -a 1 -x {0.0 5.0 5 ------- null}
+ -t 1.01218666666667 -s 4 -d 5 -p tcp -e 1040 -c 1 -i 22 -a 1 -x {0.0 5.0 5 ------- null}
r -t 1.01278933333333 -s 4 -d 1 -p ack -e 40 -c 2 -i 18 -a 2 -x {5.1 1.0 1 ------- null}
1.01279  1  0  5  1  cwnd_ 3.000 
+ -t 1.01278933333333 -s 1 -d 4 -p tcp -e 1040 -c 2 -i 26 -a 2 -x {1.0 5.1 3 ------- null}
- -t 1.01278933333333 -s 1 -d 4 -p tcp -e 1040 -c 2 -i 26 -a 2 -x {1.0 5.1 3 ------- null}
h -t 1.01278933333333 -s 1 -d 4 -p tcp -e 1040 -c 2 -i 26 -a 2 -x {1.0 5.1 -1 ------- null}
+ -t 1.01278933333333 -s 1 -d 4 -p tcp -e 1040 -c 2 -i 27 -a 2 -x {1.0 5.1 4 ------- null}
r -t 1.01385066666667 -s 0 -d 4 -p tcp -e 1040 -c 1 -i 23 -a 1 -x {0.0 5.0 6 ------- null}
+ -t 1.01385066666667 -s 4 -d 5 -p tcp -e 1040 -c 1 -i 23 -a 1 -x {0.0 5.0 6 ------- null}
- -t 1.01445333333333 -s 1 -d 4 -p tcp -e 1040 -c 2 -i 27 -a 2 -x {1.0 5.1 4 ------- null}
h -t 1.01445333333333 -s 1 -d 4 -p tcp -e 1040 -c 2 -i 27 -a 2 -x {1.0 5.1 -1 ------- null}
r -t 1.018192 -s 5 -d 4 -p ack -e 40 -c 4 -i 24 -a 4 -x {5.3 3.0 1 ------- null}
+ -t 1.018192 -s 4 -d 3 -p ack -e 40 -c 4 -i 24 -a 4 -x {5.3 3.0 1 ------- null}
- -t 1.018192 -s 4 -d 3 -p ack -e 40 -c 4 -i 24 -a 4 -x {5.3 3.0 1 ------- null}
h -t 1.018192 -s 4 -d 3 -p ack -e 40 -c 4 -i 24 -a 4 -x {5.3 3.0 -1 ------- null}
r -t 1.022592 -s 4 -d 5 -p tcp -e 1040 -c 3 -i 15 -a 3 -x {2.0 5.2 1 ------- null}
+ -t 1.022592 -s 5 -d 4 -p ack -e 40 -c 3 -i 28 -a 3 -x {5.2 2.0 1 ------- null}
- -t 1.022592 -s 5 -d 4 -p ack -e 40 -c 3 -i 28 -a 3 -x {5.2 2.0 1 ------- null}
h -t 1.022592 -s 5 -d 4 -p ack -e 40 -c 3 -i 28 -a 3 -x {5.2 2.0 -1 ------- null}
- -t 1.02805866666667 -s 4 -d 5 -p tcp -e 1040 -c 1 -i 20 -a 1 -x {0.0 5.0 4 ------- null}
h -t 1.02805866666667 -s 4 -d 5 -p tcp -e 1040 -c 1 -i 20 -a 1 -x {0.0 5.0 -1 ------- null}
r -t 1.04052266666667 -s 4 -d 1 -p ack -e 40 -c 2 -i 21 -a 2 -x {5.1 1.0 2 ------- null}
1.04052  1  0  5  1  cwnd_ 4.000 
+ -t 1.04052266666667 -s 1 -d 4 -p tcp -e 1040 -c 2 -i 29 -a 2 -x {1.0 5.1 5 ------- null}
- -t 1.04052266666667 -s 1 -d 4 -p tcp -e 1040 -c 2 -i 29 -a 2 -x {1.0 5.1 5 ------- null}
h -t 1.04052266666667 -s 1 -d 4 -p tcp -e 1040 -c 2 -i 29 -a 2 -x {1.0 5.1 -1 ------- null}
+ -t 1.04052266666667 -s 1 -d 4 -p tcp -e 1040 -c 2 -i 30 -a 2 -x {1.0 5.1 6 ------- null}
- -t 1.04218666666667 -s 1 -d 4 -p tcp -e 1040 -c 2 -i 30 -a 2 -x {1.0 5.1 6 ------- null}
h -t 1.04218666666667 -s 1 -d 4 -p tcp -e 1040 -c 2 -i 30 -a 2 -x {1.0 5.1 -1 ------- null}
r -t 1.04592533333333 -s 5 -d 4 -p ack -e 40 -c 4 -i 25 -a 4 -x {5.3 3.0 2 ------- null}
+ -t 1.04592533333333 -s 4 -d 3 -p ack -e 40 -c 4 -i 25 -a 4 -x {5.3 3.0 2 ------- null}
- -t 1.04592533333333 -s 4 -d 3 -p ack -e 40 -c 4 -i 25 -a 4 -x {5.3 3.0 2 ------- null}
h -t 1.04592533333333 -s 4 -d 3 -p ack -e 40 -c 4 -i 25 -a 4 -x {5.3 3.0 -1 ------- null}
r -t 1.05032533333333 -s 4 -d 5 -p tcp -e 1040 -c 3 -i 16 -a 3 -x {2.0 5.2 2 ------- null}
+ -t 1.05032533333333 -s 5 -d 4 -p ack -e 40 -c 3 -i 31 -a 3 -x {5.2 2.0 2 ------- null}
- -t 1.05032533333333 -s 5 -d 4 -p ack -e 40 -c 3 -i 31 -a 3 -x {5.2 2.0 2 ------- null}
h -t 1.05032533333333 -s 5 -d 4 -p ack -e 40 -c 3 -i 31 -a 3 -x {5.2 2.0 -1 ------- null}
- -t 1.055792 -s 4 -d 5 -p tcp -e 1040 -c 1 -i 22 -a 1 -x {0.0 5.0 5 ------- null}
h -t 1.055792 -s 4 -d 5 -p tcp -e 1040 -c 1 -i 22 -a 1 -x {0.0 5.0 -1 ------- null}
r -t 1.06445333333333 -s 1 -d 4 -p tcp -e 1040 -c 2 -i 26 -a 2 -x {1.0 5.1 3 ------- null}
+ -t 1.06445333333333 -s 4 -d 5 -p tcp -e 1040 -c 2 -i 26 -a 2 -x {1.0 5.1 3 ------- null}
r -t 1.06611733333333 -s 1 -d 4 -p tcp -e 1040 -c 2 -i 27 -a 2 -x {1.0 5.1 4 ------- null}
+ -t 1.06611733333333 -s 4 -d 5 -p tcp -e 1040 -c 2 -i 27 -a 2 -x {1.0 5.1 4 ------- null}
r -t 1.068256 -s 4 -d 3 -p ack -e 40 -c 4 -i 24 -a 4 -x {5.3 3.0 1 ------- null}
1.06826  3  0  5  3  cwnd_ 3.000 
+ -t 1.068256 -s 3 -d 4 -p tcp -e 1040 -c 4 -i 32 -a 4 -x {3.0 5.3 3 ------- null}
- -t 1.068256 -s 3 -d 4 -p tcp -e 1040 -c 4 -i 32 -a 4 -x {3.0 5.3 3 ------- null}
h -t 1.068256 -s 3 -d 4 -p tcp -e 1040 -c 4 -i 32 -a 4 -x {3.0 5.3 -1 ------- null}
+ -t 1.068256 -s 3 -d 4 -p tcp -e 1040 -c 4 -i 33 -a 4 -x {3.0 5.3 4 ------- null}
- -t 1.06992 -s 3 -d 4 -p tcp -e 1040 -c 4 -i 33 -a 4 -x {3.0 5.3 4 ------- null}
h -t 1.06992 -s 3 -d 4 -p tcp -e 1040 -c 4 -i 33 -a 4 -x {3.0 5.3 -1 ------- null}
r -t 1.07365866666667 -s 5 -d 4 -p ack -e 40 -c 3 -i 28 -a 3 -x {5.2 2.0 1 ------- null}
+ -t 1.07365866666667 -s 4 -d 2 -p ack -e 40 -c 3 -i 28 -a 3 -x {5.2 2.0 1 ------- null}
- -t 1.07365866666667 -s 4 -d 2 -p ack -e 40 -c 3 -i 28 -a 3 -x {5.2 2.0 1 ------- null}
h -t 1.07365866666667 -s 4 -d 2 -p ack -e 40 -c 3 -i 28 -a 3 -x {5.2 2.0 -1 ------- null}
r -t 1.07805866666667 -s 4 -d 5 -p tcp -e 1040 -c 1 -i 19 -a 1 -x {0.0 5.0 3 ------- null}
+ -t 1.07805866666667 -s 5 -d 4 -p ack -e 40 -c 1 -i 34 -a 1 -x {5.0 0.0 3 ------- null}
- -t 1.07805866666667 -s 5 -d 4 -p ack -e 40 -c 1 -i 34 -a 1 -x {5.0 0.0 3 ------- null}
h -t 1.07805866666667 -s 5 -d 4 -p ack -e 40 -c 1 -i 34 -a 1 -x {5.0 0.0 -1 ------- null}
- -t 1.08352533333333 -s 4 -d 5 -p tcp -e 1040 -c 1 -i 23 -a 1 -x {0.0 5.0 6 ------- null}
h -t 1.08352533333333 -s 4 -d 5 -p tcp -e 1040 -c 1 -i 23 -a 1 -x {0.0 5.0 -1 ------- null}
r -t 1.09218666666667 -s 1 -d 4 -p tcp -e 1040 -c 2 -i 29 -a 2 -x {1.0 5.1 5 ------- null}
+ -t 1.09218666666667 -s 4 -d 5 -p tcp -e 1040 -c 2 -i 29 -a 2 -x {1.0 5.1 5 ------- null}
r -t 1.09385066666667 -s 1 -d 4 -p tcp -e 1040 -c 2 -i 30 -a 2 -x {1.0 5.1 6 ------- null}
+ -t 1.09385066666667 -s 4 -d 5 -p tcp -e 1040 -c 2 -i 30 -a 2 -x {1.0 5.1 6 ------- null}
r -t 1.09598933333333 -s 4 -d 3 -p ack -e 40 -c 4 -i 25 -a 4 -x {5.3 3.0 2 ------- null}
1.09599  3  0  5  3  cwnd_ 4.000 
+ -t 1.09598933333333 -s 3 -d 4 -p tcp -e 1040 -c 4 -i 35 -a 4 -x {3.0 5.3 5 ------- null}
- -t 1.09598933333333 -s 3 -d 4 -p tcp -e 1040 -c 4 -i 35 -a 4 -x {3.0 5.3 5 ------- null}
h -t 1.09598933333333 -s 3 -d 4 -p tcp -e 1040 -c 4 -i 35 -a 4 -x {3.0 5.3 -1 ------- null}
+ -t 1.09598933333333 -s 3 -d 4 -p tcp -e 1040 -c 4 -i 36 -a 4 -x {3.0 5.3 6 ------- null}
- -t 1.09765333333333 -s 3 -d 4 -p tcp -e 1040 -c 4 -i 36 -a 4 -x {3.0 5.3 6 ------- null}
h -t 1.09765333333333 -s 3 -d 4 -p tcp -e 1040 -c 4 -i 36 -a 4 -x {3.0 5.3 -1 ------- null}
r -t 1.101392 -s 5 -d 4 -p ack -e 40 -c 3 -i 31 -a 3 -x {5.2 2.0 2 ------- null}
+ -t 1.101392 -s 4 -d 2 -p ack -e 40 -c 3 -i 31 -a 3 -x {5.2 2.0 2 ------- null}
- -t 1.101392 -s 4 -d 2 -p ack -e 40 -c 3 -i 31 -a 3 -x {5.2 2.0 2 ------- null}
h -t 1.101392 -s 4 -d 2 -p ack -e 40 -c 3 -i 31 -a 3 -x {5.2 2.0 -1 ------- null}
r -t 1.105792 -s 4 -d 5 -p tcp -e 1040 -c 1 -i 20 -a 1 -x {0.0 5.0 4 ------- null}
+ -t 1.105792 -s 5 -d 4 -p ack -e 40 -c 1 -i 37 -a 1 -x {5.0 0.0 4 ------- null}
- -t 1.105792 -s 5 -d 4 -p ack -e 40 -c 1 -i 37 -a 1 -x {5.0 0.0 4 ------- null}
h -t 1.105792 -s 5 -d 4 -p ack -e 40 -c 1 -i 37 -a 1 -x {5.0 0.0 -1 ------- null}
- -t 1.11125866666667 -s 4 -d 5 -p tcp -e 1040 -c 2 -i 26 -a 2 -x {1.0 5.1 3 ------- null}
h -t 1.11125866666667 -s 4 -d 5 -p tcp -e 1040 -c 2 -i 26 -a 2 -x {1.0 5.1 -1 ------- null}
r -t 1.11992 -s 3 -d 4 -p tcp -e 1040 -c 4 -i 32 -a 4 -x {3.0 5.3 3 ------- null}
+ -t 1.11992 -s 4 -d 5 -p tcp -e 1040 -c 4 -i 32 -a 4 -x {3.0 5.3 3 ------- null}
r -t 1.121584 -s 3 -d 4 -p tcp -e 1040 -c 4 -i 33 -a 4 -x {3.0 5.3 4 ------- null}
+ -t 1.121584 -s 4 -d 5 -p tcp -e 1040 -c 4 -i 33 -a 4 -x {3.0 5.3 4 ------- null}
r -t 1.12372266666667 -s 4 -d 2 -p ack -e 40 -c 3 -i 28 -a 3 -x {5.2 2.0 1 ------- null}
1.12372  2  0  5  2  cwnd_ 3.000 
+ -t 1.12372266666667 -s 2 -d 4 -p tcp -e 1040 -c 3 -i 38 -a 3 -x {2.0 5.2 3 ------- null}
- -t 1.12372266666667 -s 2 -d 4 -p tcp -e 1040 -c 3 -i 38 -a 3 -x {2.0 5.2 3 ------- null}
h -t 1.12372266666667 -s 2 -d 4 -p tcp -e 1040 -c 3 -i 38 -a 3 -x {2.0 5.2 -1 ------- null}
+ -t 1.12372266666667 -s 2 -d 4 -p tcp -e 1040 -c 3 -i 39 -a 3 -x {2.0 5.2 4 ------- null}
- -t 1.12538666666667 -s 2 -d 4 -p tcp -e 1040 -c 3 -i 39 -a 3 -x {2.0 5.2 4 ------- null}
h -t 1.12538666666667 -s 2 -d 4 -p tcp -e 1040 -c 3 -i 39 -a 3 -x {2.0 5.2 -1 ------- null}
r -t 1.12912533333333 -s 5 -d 4 -p ack -e 40 -c 1 -i 34 -a 1 -x {5.0 0.0 3 ------- null}
+ -t 1.12912533333333 -s 4 -d 0 -p ack -e 40 -c 1 -i 34 -a 1 -x {5.0 0.0 3 ------- null}
- -t 1.12912533333333 -s 4 -d 0 -p ack -e 40 -c 1 -i 34 -a 1 -x {5.0 0.0 3 ------- null}
h -t 1.12912533333333 -s 4 -d 0 -p ack -e 40 -c 1 -i 34 -a 1 -x {5.0 0.0 -1 ------- null}
r -t 1.13352533333333 -s 4 -d 5 -p tcp -e 1040 -c 1 -i 22 -a 1 -x {0.0 5.0 5 ------- null}
+ -t 1.13352533333333 -s 5 -d 4 -p ack -e 40 -c 1 -i 40 -a 1 -x {5.0 0.0 5 ------- null}
- -t 1.13352533333333 -s 5 -d 4 -p ack -e 40 -c 1 -i 40 -a 1 -x {5.0 0.0 5 ------- null}
h -t 1.13352533333333 -s 5 -d 4 -p ack -e 40 -c 1 -i 40 -a 1 -x {5.0 0.0 -1 ------- null}
- -t 1.138992 -s 4 -d 5 -p tcp -e 1040 -c 2 -i 27 -a 2 -x {1.0 5.1 4 ------- null}
h -t 1.138992 -s 4 -d 5 -p tcp -e 1040 -c 2 -i 27 -a 2 -x {1.0 5.1 -1 ------- null}
r -t 1.14765333333333 -s 3 -d 4 -p tcp -e 1040 -c 4 -i 35 -a 4 -x {3.0 5.3 5 ------- null}
+ -t 1.14765333333333 -s 4 -d 5 -p tcp -e 1040 -c 4 -i 35 -a 4 -x {3.0 5.3 5 ------- null}
r -t 1.14931733333333 -s 3 -d 4 -p tcp -e 1040 -c 4 -i 36 -a 4 -x {3.0 5.3 6 ------- null}
+ -t 1.14931733333333 -s 4 -d 5 -p tcp -e 1040 -c 4 -i 36 -a 4 -x {3.0 5.3 6 ------- null}
r -t 1.151456 -s 4 -d 2 -p ack -e 40 -c 3 -i 31 -a 3 -x {5.2 2.0 2 ------- null}
1.15146  2  0  5  2  cwnd_ 4.000 
+ -t 1.151456 -s 2 -d 4 -p tcp -e 1040 -c 3 -i 41 -a 3 -x {2.0 5.2 5 ------- null}
- -t 1.151456 -s 2 -d 4 -p tcp -e 1040 -c 3 -i 41 -a 3 -x {2.0 5.2 5 ------- null}
h -t 1.151456 -s 2 -d 4 -p tcp -e 1040 -c 3 -i 41 -a 3 -x {2.0 5.2 -1 ------- null}
+ -t 1.151456 -s 2 -d 4 -p tcp -e 1040 -c 3 -i 42 -a 3 -x {2.0 5.2 6 ------- null}
- -t 1.15312 -s 2 -d 4 -p tcp -e 1040 -c 3 -i 42 -a 3 -x {2.0 5.2 6 ------- null}
h -t 1.15312 -s 2 -d 4 -p tcp -e 1040 -c 3 -i 42 -a 3 -x {2.0 5.2 -1 ------- null}
r -t 1.15685866666667 -s 5 -d 4 -p ack -e 40 -c 1 -i 37 -a 1 -x {5.0 0.0 4 ------- null}
+ -t 1.15685866666667 -s 4 -d 0 -p ack -e 40 -c 1 -i 37 -a 1 -x {5.0 0.0 4 ------- null}
- -t 1.15685866666667 -s 4 -d 0 -p ack -e 40 -c 1 -i 37 -a 1 -x {5.0 0.0 4 ------- null}
h -t 1.15685866666667 -s 4 -d 0 -p ack -e 40 -c 1 -i 37 -a 1 -x {5.0 0.0 -1 ------- null}
r -t 1.16125866666667 -s 4 -d 5 -p tcp -e 1040 -c 1 -i 23 -a 1 -x {0.0 5.0 6 ------- null}
+ -t 1.16125866666667 -s 5 -d 4 -p ack -e 40 -c 1 -i 43 -a 1 -x {5.0 0.0 6 ------- null}
- -t 1.16125866666667 -s 5 -d 4 -p ack -e 40 -c 1 -i 43 -a 1 -x {5.0 0.0 6 ------- null}
h -t 1.16125866666667 -s 5 -d 4 -p ack -e 40 -c 1 -i 43 -a 1 -x {5.0 0.0 -1 ------- null}
- -t 1.16672533333333 -s 4 -d 5 -p tcp -e 1040 -c 2 -i 29 -a 2 -x {1.0 5.1 5 ------- null}
h -t 1.16672533333333 -s 4 -d 5 -p tcp -e 1040 -c 2 -i 29 -a 2 -x {1.0 5.1 -1 ------- null}
r -t 1.17538666666667 -s 2 -d 4 -p tcp -e 1040 -c 3 -i 38 -a 3 -x {2.0 5.2 3 ------- null}
+ -t 1.17538666666667 -s 4 -d 5 -p tcp -e 1040 -c 3 -i 38 -a 3 -x {2.0 5.2 3 ------- null}
r -t 1.17705066666667 -s 2 -d 4 -p tcp -e 1040 -c 3 -i 39 -a 3 -x {2.0 5.2 4 ------- null}
+ -t 1.17705066666667 -s 4 -d 5 -p tcp -e 1040 -c 3 -i 39 -a 3 -x {2.0 5.2 4 ------- null}
r -t 1.17918933333333 -s 4 -d 0 -p ack -e 40 -c 1 -i 34 -a 1 -x {5.0 0.0 3 ------- null}
1.17919  0  0  5  0  cwnd_ 5.000 
+ -t 1.17918933333333 -s 0 -d 4 -p tcp -e 1040 -c 1 -i 44 -a 1 -x {0.0 5.0 7 ------- null}
- -t 1.17918933333333 -s 0 -d 4 -p tcp -e 1040 -c 1 -i 44 -a 1 -x {0.0 5.0 7 ------- null}
h -t 1.17918933333333 -s 0 -d 4 -p tcp -e 1040 -c 1 -i 44 -a 1 -x {0.0 5.0 -1 ------- null}
+ -t 1.17918933333333 -s 0 -d 4 -p tcp -e 1040 -c 1 -i 45 -a 1 -x {0.0 5.0 8 ------- null}
- -t 1.18085333333333 -s 0 -d 4 -p tcp -e 1040 -c 1 -i 45 -a 1 -x {0.0 5.0 8 ------- null}
h -t 1.18085333333333 -s 0 -d 4 -p tcp -e 1040 -c 1 -i 45 -a 1 -x {0.0 5.0 -1 ------- null}
r -t 1.184592 -s 5 -d 4 -p ack -e 40 -c 1 -i 40 -a 1 -x {5.0 0.0 5 ------- null}
+ -t 1.184592 -s 4 -d 0 -p ack -e 40 -c 1 -i 40 -a 1 -x {5.0 0.0 5 ------- null}
- -t 1.184592 -s 4 -d 0 -p ack -e 40 -c 1 -i 40 -a 1 -x {5.0 0.0 5 ------- null}
h -t 1.184592 -s 4 -d 0 -p ack -e 40 -c 1 -i 40 -a 1 -x {5.0 0.0 -1 ------- null}