+ 0.5 0 4 tcp 40 ------- 1 0.0 5.0 0 0
- 0.5 0 4 tcp 40 ------- 1 0.0 5.0 0 0
r 0.550064 0 4 tcp 40 ------- 1 0.0 5.0 0 0
+ 0.550064 4 5 tcp 40 ------- 1 0.0 5.0 0 0
- 0.550064 4 5 tcp 40 ------- 1 0.0 5.0 0 0
+ 0.58 1 4 tcp 40 ------- 2 1.0 5.1 0 1
- 0.58 1 4 tcp 40 ------- 2 1.0 5.1 0 1
+ 0.6 3 4 tcp 40 ------- 4 3.0 5.3 0 2
- 0.6 3 4 tcp 40 ------- 4 3.0 5.3 0 2
r 0.601131 4 5 tcp 40 ------- 1 0.0 5.0 0 0
+ 0.601131 5 4 ack 40 ------- 1 5.0 0.0 0 3
- 0.601131 5 4 ack 40 ------- 1 5.0 0.0 0 3
r 0.630064 1 4 tcp 40 ------- 2 1.0 5.1 0 1
+ 0.630064 4 5 tcp 40 ------- 2 1.0 5.1 0 1
- 0.630064 4 5 tcp 40 ------- 2 1.0 5.1 0 1
+ 0.65 2 4 tcp 40 ------- 3 2.0 5.2 0 4
- 0.65 2 4 tcp 40 ------- 3 2.0 5.2 0 4
r 0.650064 3 4 tcp 40 ------- 4 3.0 5.3 0 2
+ 0.650064 4 5 tcp 40 ------- 4 3.0 5.3 0 2
- 0.650064 4 5 tcp 40 ------- 4 3.0 5.3 0 2
r 0.652197 5 4 ack 40 ------- 1 5.0 0.0 0 3
+ 0.652197 4 0 ack 40 ------- 1 5.0 0.0 0 3
- 0.652197 4 0 ack 40 ------- 1 5.0 0.0 0 3
r 0.681131 4 5 tcp 40 ------- 2 1.0 5.1 0 1
+ 0.681131 5 4 ack 40 ------- 2 5.1 1.0 0 5
- 0.681131 5 4 ack 40 ------- 2 5.1 1.0 0 5
r 0.700064 2 4 tcp 40 ------- 3 2.0 5.2 0 4
+ 0.700064 4 5 tcp 40 ------- 3 2.0 5.2 0 4
- 0.700064 4 5 tcp 40 ------- 3 2.0 5.2 0 4
r 0.701131 4 5 tcp 40 ------- 4 3.0 5.3 0 2
+ 0.701131 5 4 ack 40 ------- 4 5.3 3.0 0 6
- 0.701131 5 4 ack 40 ------- 4 5.3 3.0 0 6
r 0.702261 4 0 ack 40 ------- 1 5.0 0.0 0 3
+ 0.702261 0 4 tcp 1040 ------- 1 0.0 5.0 1 7
- 0.702261 0 4 tcp 1040 ------- 1 0.0 5.0 1 7
+ 0.702261 0 4 tcp 1040 ------- 1 0.0 5.0 2 8
- 0.703925 0 4 tcp 1040 ------- 1 0.0 5.0 2 8
r 0.732197 5 4 ack 40 ------- 2 5.1 1.0 0 5
+ 0.732197 4 1 ack 40 ------- 2 5.1 1.0 0 5
- 0.732197 4 1 ack 40 ------- 2 5.1 1.0 0 5
r 0.751131 4 5 tcp 40 ------- 3 2.0 5.2 0 4
+ 0.751131 5 4 ack 40 ------- 3 5.2 2.0 0 9
- 0.751131 5 4 ack 40 ------- 3 5.2 2.0 0 9
r 0.752197 5 4 ack 40 ------- 4 5.3 3.0 0 6
+ 0.752197 4 3 ack 40 ------- 4 5.3 3.0 0 6
- 0.752197 4 3 ack 40 ------- 4 5.3 3.0 0 6
r 0.753925 0 4 tcp 1040 ------- 1 0.0 5.0 1 7
+ 0.753925 4 5 tcp 1040 ------- 1 0.0 5.0 1 7
- 0.753925 4 5 tcp 1040 ------- 1 0.0 5.0 1 7
r 0.755589 0 4 tcp 1040 ------- 1 0.0 5.0 2 8
+ 0.755589 4 5 tcp 1040 ------- 1 0.0 5.0 2 8
- 0.781659 4 5 tcp 1040 ------- 1 0.0 5.0 2 8
r 0.782261 4 1 ack 40 ------- 2 5.1 1.0 0 5
+ 0.782261 1 4 tcp 1040 ------- 2 1.0 5.1 1 10
- 0.782261 1 4 tcp 1040 ------- 2 1.0 5.1 1 10
+ 0.782261 1 4 tcp 1040 ------- 2 1.0 5.1 2 11
- 0.783925 1 4 tcp 1040 ------- 2 1.0 5.1 2 11
r 0.802197 5 4 ack 40 ------- 3 5.2 2.0 0 9
+ 0.802197 4 2 ack 40 ------- 3 5.2 2.0 0 9
- 0.802197 4 2 ack 40 ------- 3 5.2 2.0 0 9
r 0.802261 4 3 ack 40 ------- 4 5.3 3.0 0 6
+ 0.802261 3 4 tcp 1040 ------- 4 3.0 5.3 1 12
- 0.802261 3 4 tcp 1040 ------- 4 3.0 5.3 1 12
+ 0.802261 3 4 tcp 1040 ------- 4 3.0 5.3 2 13
- 0.803925 3 4 tcp 1040 ------- 4 3.0 5.3 2 13
r 0.831659 4 5 tcp 1040 ------- 1 0.0 5.0 1 7
+ 0.831659 5 4 ack 40 ------- 1 5.0 0.0 1 14
- 0.831659 5 4 ack 40 ------- 1 5.0 0.0 1 14
r 0.833925 1 4 tcp 1040 ------- 2 1.0 5.1 1 10
+ 0.833925 4 5 tcp 1040 ------- 2 1.0 5.1 1 10
- 0.833925 4 5 tcp 1040 ------- 2 1.0 5.1 1 10
r 0.835589 1 4 tcp 1040 ------- 2 1.0 5.1 2 11
+ 0.835589 4 5 tcp 1040 ------- 2 1.0 5.1 2 11
r 0.852261 4 2 ack 40 ------- 3 5.2 2.0 0 9
+ 0.852261 2 4 tcp 1040 ------- 3 2.0 5.2 1 15
- 0.852261 2 4 tcp 1040 ------- 3 2.0 5.2 1 15
+ 0.852261 2 4 tcp 1040 ------- 3 2.0 5.2 2 16
r 0.853925 3 4 tcp 1040 ------- 4 3.0 5.3 1 12
+ 0.853925 4 5 tcp 1040 ------- 4 3.0 5.3 1 12
- 0.853925 2 4 tcp 1040 ------- 3 2.0 5.2 2 16
r 0.855589 3 4 tcp 1040 ------- 4 3.0 5.3 2 13
+ 0.855589 4 5 tcp 1040 ------- 4 3.0 5.3 2 13
r 0.859392 4 5 tcp 1040 ------- 1 0.0 5.0 2 8
+ 0.859392 5 4 ack 40 ------- 1 5.0 0.0 2 17
- 0.859392 5 4 ack 40 ------- 1 5.0 0.0 2 17
- 0.861659 4 5 tcp 1040 ------- 2 1.0 5.1 2 11
r 0.882725 5 4 ack 40 ------- 1 5.0 0.0 1 14
+ 0.882725 4 0 ack 40 ------- 1 5.0 0.0 1 14
- 0.882725 4 0 ack 40 ------- 1 5.0 0.0 1 14
- 0.889392 4 5 tcp 1040 ------- 4 3.0 5.3 1 12
r 0.903925 2 4 tcp 1040 ------- 3 2.0 5.2 1 15
+ 0.903925 4 5 tcp 1040 ------- 3 2.0 5.2 1 15
r 0.905589 2 4 tcp 1040 ------- 3 2.0 5.2 2 16
+ 0.905589 4 5 tcp 1040 ------- 3 2.0 5.2 2 16
r 0.910459 5 4 ack 40 ------- 1 5.0 0.0 2 17
+ 0.910459 4 0 ack 40 ------- 1 5.0 0.0 2 17
- 0.910459 4 0 ack 40 ------- 1 5.0 0.0 2 17
r 0.911659 4 5 tcp 1040 ------- 2 1.0 5.1 1 10
+ 0.911659 5 4 ack 40 ------- 2 5.1 1.0 1 18
- 0.911659 5 4 ack 40 ------- 2 5.1 1.0 1 18
- 0.917125 4 5 tcp 1040 ------- 4 3.0 5.3 2 13
r 0.932789 4 0 ack 40 ------- 1 5.0 0.0 1 14
+ 0.932789 0 4 tcp 1040 ------- 1 0.0 5.0 3 19
- 0.932789 0 4 tcp 1040 ------- 1 0.0 5.0 3 19
+ 0.932789 0 4 tcp 1040 ------- 1 0.0 5.0 4 20
- 0.934453 0 4 tcp 1040 ------- 1 0.0 5.0 4 20
r 0.939392 4 5 tcp 1040 ------- 2 1.0 5.1 2 11
+ 0.939392 5 4 ack 40 ------- 2 5.1 1.0 2 21
- 0.939392 5 4 ack 40 ------- 2 5.1 1.0 2 21
- 0.944859 4 5 tcp 1040 ------- 3 2.0 5.2 1 15
r 0.960523 4 0 ack 40 ------- 1 5.0 0.0 2 17
+ 0.960523 0 4 tcp 1040 ------- 1 0.0 5.0 5 22
- 0.960523 0 4 tcp 1040 ------- 1 0.0 5.0 5 22
+ 0.960523 0 4 tcp 1040 ------- 1 0.0 5.0 6 23
- 0.962187 0 4 tcp 1040 ------- 1 0.0 5.0 6 23
r 0.962725 5 4 ack 40 ------- 2 5.1 1.0 1 18
+ 0.962725 4 1 ack 40 ------- 2 5.1 1.0 1 18
- 0.962725 4 1 ack 40 ------- 2 5.1 1.0 1 18
r 0.967125 4 5 tcp 1040 ------- 4 3.0 5.3 1 12
+ 0.967125 5 4 ack 40 ------- 4 5.3 3.0 1 24
- 0.967125 5 4 ack 40 ------- 4 5.3 3.0 1 24
- 0.972592 4 5 tcp 1040 ------- 3 2.0 5.2 2 16
r 0.984453 0 4 tcp 1040 ------- 1 0.0 5.0 3 19
+ 0.984453 4 5 tcp 1040 ------- 1 0.0 5.0 3 19
r 0.986117 0 4 tcp 1040 ------- 1 0.0 5.0 4 20
+ 0.986117 4 5 tcp 1040 ------- 1 0.0 5.0 4 20
r 0.990459 5 4 ack 40 ------- 2 5.1 1.0 2 21
+ 0.990459 4 1 ack 40 ------- 2 5.1 1.0 2 21
- 0.990459 4 1 ack 40 ------- 2 5.1 1.0 2 21
r 0.994859 4 5 tcp 1040 ------- 4 3.0 5.3 2 13
+ 0.994859 5 4 ack 40 ------- 4 5.3 3.0 2 25
- 0.994859 5 4 ack 40 ------- 4 5.3 3.0 2 25
- 1.000325 4 5 tcp 1040 ------- 1 0.0 5.0 3 19
r 1.012187 0 4 tcp 1040 ------- 1 0.0 5.0 5 22
+ 1.012187 4 5 tcp 1040 ------- 1 0.0 5.0 5 22
r 1.012789 4 1 ack 40 ------- 2 5.1 1.0 1 18
+ 1.012789 1 4 tcp 1040 ------- 2 1.0 5.1 3 26
- 1.012789 1 4 tcp 1040 ------- 2 1.0 5.1 3 26
+ 1.012789 1 4 tcp 1040 ------- 2 1.0 5.1 4 27
r 1.013851 0 4 tcp 1040 ------- 1 0.0 5.0 6 23
+ 1.013851 4 5 tcp 1040 ------- 1 0.0 5.0 6 23
- 1.014453 1 4 tcp 1040 ------- 2 1.0 5.1 4 27
r 1.018192 5 4 ack 40 ------- 4 5.3 3.0 1 24
+ 1.018192 4 3 ack 40 ------- 4 5.3 3.0 1 24
- 1.018192 4 3 ack 40 ------- 4 5.3 3.0 1 24
r 1.022592 4 5 tcp 1040 ------- 3 2.0 5.2 1 15
+ 1.022592 5 4 ack 40 ------- 3 5.2 2.0 1 28
- 1.022592 5 4 ack 40 ------- 3 5.2 2.0 1 28
- 1.028059 4 5 tcp 1040 ------- 1 0.0 5.0 4 20
r 1.040523 4 1 ack 40 ------- 2 5.1 1.0 2 21
+ 1.040523 1 4 tcp 1040 ------- 2 1.0 5.1 5 29
- 1.040523 1 4 tcp 1040 ------- 2 1.0 5.1 5 29
+ 1.040523 1 4 tcp 1040 ------- 2 1.0 5.1 6 30
- 1.042187 1 4 tcp 1040 ------- 2 1.0 5.1 6 30
r 1.045925 5 4 ack 40 ------- 4 5.3 3.0 2 25
+ 1.045925 4 3 ack 40 ------- 4 5.3 3.0 2 25
- 1.045925 4 3 ack 40 ------- 4 5.3 3.0 2 25
r 1.050325 4 5 tcp 1040 ------- 3 2.0 5.2 2 16
+ 1.050325 5 4 ack 40 ------- 3 5.2 2.0 2 31
- 1.050325 5 4 ack 40 ------- 3 5.2 2.0 2 31
- 1.055792 4 5 tcp 1040 ------- 1 0.0 5.0 5 22
r 1.064453 1 4 tcp 1040 ------- 2 1.0 5.1 3 26
+ 1.064453 4 5 tcp 1040 ------- 2 1.0 5.1 3 26
r 1.066117 1 4 tcp 1040 ------- 2 1.0 5.1 4 27
+ 1.066117 4 5 tcp 1040 ------- 2 1.0 5.1 4 27
r 1.068256 4 3 ack 40 ------- 4 5.3 3.0 1 24
+ 1.068256 3 4 tcp 1040 ------- 4 3.0 5.3 3 32
- 1.068256 3 4 tcp 1040 ------- 4 3.0 5.3 3 32
+ 1.068256 3 4 tcp 1040 ------- 4 3.0 5.3 4 33
- 1.06992 3 4 tcp 1040 ------- 4 3.0 5.3 4 33
r 1.073659 5 4 ack 40 ------- 3 5.2 2.0 1 28
+ 1.073659 4 2 ack 40 ------- 3 5.2 2.0 1 28
- 1.073659 4 2 ack 40 ------- 3 5.2 2.0 1 28
r 1.078059 4 5 tcp 1040 ------- 1 0.0 5.0 3 19
+ 1.078059 5 4 ack 40 ------- 1 5.0 0.0 3 34
- 1.078059 5 4 ack 40 ------- 1 5.0 0.0 3 34
- 1.083525 4 5 tcp 1040 ------- 1 0.0 5.0 6 23
r 1.092187 1 4 tcp 1040 ------- 2 1.0 5.1 5 29
+ 1.092187 4 5 tcp 1040 ------- 2 1.0 5.1 5 29
r 1.093851 1 4 tcp 1040 ------- 2 1.0 5.1 6 30
+ 1.093851 4 5 tcp 1040 ------- 2 1.0 5.1 6 30
r 1.095989 4 3 ack 40 ------- 4 5.3 3.0 2 25
+ 1.095989 3 4 tcp 1040 ------- 4 3.0 5.3 5 35
- 1.095989 3 4 tcp 1040 ------- 4 3.0 5.3 5 35
+ 1.095989 3 4 tcp 1040 ------- 4 3.0 5.3 6 36
- 1.097653 3 4 tcp 1040 ------- 4 3.0 5.3 6 36
r 1.101392 5 4 ack 40 ------- 3 5.2 2.0 2 31
+ 1.101392 4 2 ack 40 ------- 3 5.2 2.0 2 31
- 1.101392 4 2 ack 40 ------- 3 5.2 2.0 2 31
r 1.105792 4 5 tcp 1040 ------- 1 0.0 5.0 4 20
+ 1.105792 5 4 ack 40 ------- 1 5.0 0.0 4 37
- 1.105792 5 4 ack 40 ------- 1 5.0 0.0 4 37
- 1.111259 4 5 tcp 1040 ------- 2 1.0 5.1 3 26
r 1.11992 3 4 tcp 1040 ------- 4 3.0 5.3 3 32
+ 1.11992 4 5 tcp 1040 ------- 4 3.0 5.3 3 32
r 1.121584 3 4 tcp 1040 ------- 4 3.0 5.3 4 33
+ 1.121584 4 5 tcp 1040 ------- 4 3.0 5.3 4 33
r 1.123723 4 2 ack 40 ------- 3 5.2 2.0 1 28
+ 1.123723 2 4 tcp 1040 ------- 3 2.0 5.2 3 38
- 1.123723 2 4 tcp 1040 ------- 3 2.0 5.2 3 38
+ 1.123723 2 4 tcp 1040 ------- 3 2.0 5.2 4 39
- 1.125387 2 4 tcp 1040 ------- 3 2.0 5.2 4 39
r 1.129125 5 4 ack 40 ------- 1 5.0 0.0 3 34
+ 1.129125 4 0 ack 40 ------- 1 5.0 0.0 3 34
- 1.129125 4 0 ack 40 ------- 1 5.0 0.0 3 34
r 1.133525 4 5 tcp 1040 ------- 1 0.0 5.0 5 22
+ 1.133525 5 4 ack 40 ------- 1 5.0 0.0 5 40
- 1.133525 5 4 ack 40 ------- 1 5.0 0.0 5 40
- 1.138992 4 5 tcp 1040 ------- 2 1.0 5.1 4 27
r 1.147653 3 4 tcp 1040 ------- 4 3.0 5.3 5 35
+ 1.147653 4 5 tcp 1040 ------- 4 3.0 5.3 5 35
r 1.149317 3 4 tcp 1040 ------- 4 3.0 5.3 6 36
+ 1.149317 4 5 tcp 1040 ------- 4 3.0 5.3 6 36
r 1.151456 4 2 ack 40 ------- 3 5.2 2.0 2 31
+ 1.151456 2 4 tcp 1040 ------- 3 2.0 5.2 5 41
- 1.151456 2 4 tcp 1040 ------- 3 2.0 5.2 5 41
+ 1.151456 2 4 tcp 1040 ------- 3 2.0 5.2 6 42
- 1.15312 2 4 tcp 1040 ------- 3 2.0 5.2 6 42
r 1.156859 5 4 ack 40 ------- 1 5.0 0.0 4 37
+ 1.156859 4 0 ack 40 ------- 1 5.0 0.0 4 37
- 1.156859 4 0 ack 40 ------- 1 5.0 0.0 4 37
r 1.161259 4 5 tcp 1040 ------- 1 0.0 5.0 6 23
+ 1.161259 5 4 ack 40 ------- 1 5.0 0.0 6 43
- 1.161259 5 4 ack 40 ------- 1 5.0 0.0 6 43
- 1.166725 4 5 tcp 1040 ------- 2 1.0 5.1 5 29
r 1.175387 2 4 tcp 1040 ------- 3 2.0 5.2 3 38
+ 1.175387 4 5 tcp 1040 ------- 3 2.0 5.2 3 38
r 1.177051 2 4 tcp 1040 ------- 3 2.0 5.2 4 39
+ 1.177051 4 5 tcp 1040 ------- 3 2.0 5.2 4 39
r 1.179189 4 0 ack 40 ------- 1 5.0 0.0 3 34
+ 1.179189 0 4 tcp 1040 ------- 1 0.0 5.0 7 44
- 1.179189 0 4 tcp 1040 ------- 1 0.0 5.0 7 44
+ 1.179189 0 4 tcp 1040 ------- 1 0.0 5.0 8 45
- 1.180853 0 4 tcp 1040 ------- 1 0.0 5.0 8 45
r 1.184592 5 4 ack 40 ------- 1 5.0 0.0 5 40
+ 1.184592 4 0 ack 40 ------- 1 5.0 0.0 5 40
- 1.184592 4 0 ack 40 ------- 1 5.0 0.0 5 40
r 1.188992 4 5 tcp 1040 ------- 2 1.0 5.1 3 26
+ 1.188992 5 4 ack 40 ------- 2 5.1 1.0 3 46
- 1.188992 5 4 ack 40 ------- 2 5.1 1.0 3 46
- 1.194459 4 5 tcp 1040 ------- 2 1.0 5.1 6 30
r 1.20312 2 4 tcp 1040 ------- 3 2.0 5.2 5 41
+ 1.20312 4 5 tcp 1040 ------- 3 2.0 5.2 5 41
r 1.204784 2 4 tcp 1040 ------- 3 2.0 5.2 6 42
+ 1.204784 4 5 tcp 1040 ------- 3 2.0 5.2 6 42
r 1.206923 4 0 ack 40 ------- 1 5.0 0.0 4 37
+ 1.206923 0 4 tcp 1040 ------- 1 0.0 5.0 9 47
- 1.206923 0 4 tcp 1040 ------- 1 0.0 5.0 9 47
+ 1.206923 0 4 tcp 1040 ------- 1 0.0 5.0 10 48
- 1.208587 0 4 tcp 1040 ------- 1 0.0 5.0 10 48
r 1.212325 5 4 ack 40 ------- 1 5.0 0.0 6 43
+ 1.212325 4 0 ack 40 ------- 1 5.0 0.0 6 43
- 1.212325 4 0 ack 40 ------- 1 5.0 0.0 6 43
r 1.216725 4 5 tcp 1040 ------- 2 1.0 5.1 4 27
+ 1.216725 5 4 ack 40 ------- 2 5.1 1.0 4 49
- 1.216725 5 4 ack 40 ------- 2 5.1 1.0 4 49
- 1.222192 4 5 tcp 1040 ------- 4 3.0 5.3 3 32
r 1.230853 0 4 tcp 1040 ------- 1 0.0 5.0 7 44
+ 1.230853 4 5 tcp 1040 ------- 1 0.0 5.0 7 44
r 1.232517 0 4 tcp 1040 ------- 1 0.0 5.0 8 45
+ 1.232517 4 5 tcp 1040 ------- 1 0.0 5.0 8 45
r 1.234656 4 0 ack 40 ------- 1 5.0 0.0 5 40
+ 1.234656 0 4 tcp 1040 ------- 1 0.0 5.0 11 50
- 1.234656 0 4 tcp 1040 ------- 1 0.0 5.0 11 50
+ 1.234656 0 4 tcp 1040 ------- 1 0.0 5.0 12 51
- 1.23632 0 4 tcp 1040 ------- 1 0.0 5.0 12 51
r 1.240059 5 4 ack 40 ------- 2 5.1 1.0 3 46
+ 1.240059 4 1 ack 40 ------- 2 5.1 1.0 3 46
- 1.240059 4 1 ack 40 ------- 2 5.1 1.0 3 46
r 1.244459 4 5 tcp 1040 ------- 2 1.0 5.1 5 29
+ 1.244459 5 4 ack 40 ------- 2 5.1 1.0 5 52
- 1.244459 5 4 ack 40 ------- 2 5.1 1.0 5 52
- 1.249925 4 5 tcp 1040 ------- 4 3.0 5.3 4 33
r 1.258587 0 4 tcp 1040 ------- 1 0.0 5.0 9 47
+ 1.258587 4 5 tcp 1040 ------- 1 0.0 5.0 9 47
r 1.260251 0 4 tcp 1040 ------- 1 0.0 5.0 10 48
+ 1.260251 4 5 tcp 1040 ------- 1 0.0 5.0 10 48
r 1.262389 4 0 ack 40 ------- 1 5.0 0.0 6 43
+ 1.262389 0 4 tcp 1040 ------- 1 0.0 5.0 13 53
- 1.262389 0 4 tcp 1040 ------- 1 0.0 5.0 13 53
+ 1.262389 0 4 tcp 1040 ------- 1 0.0 5.0 14 54
- 1.264053 0 4 tcp 1040 ------- 1 0.0 5.0 14 54
r 1.267792 5 4 ack 40 ------- 2 5.1 1.0 4 49
+ 1.267792 4 1 ack 40 ------- 2 5.1 1.0 4 49
- 1.267792 4 1 ack 40 ------- 2 5.1 1.0 4 49
r 1.272192 4 5 tcp 1040 ------- 2 1.0 5.1 6 30
+ 1.272192 5 4 ack 40 ------- 2 5.1 1.0 6 55
- 1.272192 5 4 ack 40 ------- 2 5.1 1.0 6 55
- 1.277659 4 5 tcp 1040 ------- 4 3.0 5.3 5 35
r 1.28632 0 4 tcp 1040 ------- 1 0.0 5.0 11 50
+ 1.28632 4 5 tcp 1040 ------- 1 0.0 5.0 11 50
r 1.287984 0 4 tcp 1040 ------- 1 0.0 5.0 12 51
+ 1.287984 4 5 tcp 1040 ------- 1 0.0 5.0 12 51
r 1.290123 4 1 ack 40 ------- 2 5.1 1.0 3 46
+ 1.290123 1 4 tcp 1040 ------- 2 1.0 5.1 7 56
- 1.290123 1 4 tcp 1040 ------- 2 1.0 5.1 7 56
+ 1.290123 1 4 tcp 1040 ------- 2 1.0 5.1 8 57
- 1.291787 1 4 tcp 1040 ------- 2 1.0 5.1 8 57
r 1.295525 5 4 ack 40 ------- 2 5.1 1.0 5 52
+ 1.295525 4 1 ack 40 ------- 2 5.1 1.0 5 52
- 1.295525 4 1 ack 40 ------- 2 5.1 1.0 5 52
r 1.299925 4 5 tcp 1040 ------- 4 3.0 5.3 3 32
+ 1.299925 5 4 ack 40 ------- 4 5.3 3.0 3 58
- 1.299925 5 4 ack 40 ------- 4 5.3 3.0 3 58
- 1.305392 4 5 tcp 1040 ------- 4 3.0 5.3 6 36
r 1.314053 0 4 tcp 1040 ------- 1 0.0 5.0 13 53
+ 1.314053 4 5 tcp 1040 ------- 1 0.0 5.0 13 53
r 1.315717 0 4 tcp 1040 ------- 1 0.0 5.0 14 54
+ 1.315717 4 5 tcp 1040 ------- 1 0.0 5.0 14 54
r 1.317856 4 1 ack 40 ------- 2 5.1 1.0 4 49
+ 1.317856 1 4 tcp 1040 ------- 2 1.0 5.1 9 59
- 1.317856 1 4 tcp 1040 ------- 2 1.0 5.1 9 59
+ 1.317856 1 4 tcp 1040 ------- 2 1.0 5.1 10 60
- 1.31952 1 4 tcp 1040 ------- 2 1.0 5.1 10 60
r 1.323259 5 4 ack 40 ------- 2 5.1 1.0 6 55
+ 1.323259 4 1 ack 40 ------- 2 5.1 1.0 6 55
- 1.323259 4 1 ack 40 ------- 2 5.1 1.0 6 55
r 1.327659 4 5 tcp 1040 ------- 4 3.0 5.3 4 33
+ 1.327659 5 4 ack 40 ------- 4 5.3 3.0 4 61
- 1.327659 5 4 ack 40 ------- 4 5.3 3.0 4 61
- 1.333125 4 5 tcp 1040 ------- 3 2.0 5.2 3 38
r 1.341787 1 4 tcp 1040 ------- 2 1.0 5.1 7 56
+ 1.341787 4 5 tcp 1040 ------- 2 1.0 5.1 7 56
r 1.343451 1 4 tcp 1040 ------- 2 1.0 5.1 8 57
+ 1.343451 4 5 tcp 1040 ------- 2 1.0 5.1 8 57
r 1.345589 4 1 ack 40 ------- 2 5.1 1.0 5 52
+ 1.345589 1 4 tcp 1040 ------- 2 1.0 5.1 11 62
- 1.345589 1 4 tcp 1040 ------- 2 1.0 5.1 11 62
+ 1.345589 1 4 tcp 1040 ------- 2 1.0 5.1 12 63
- 1.347253 1 4 tcp 1040 ------- 2 1.0 5.1 12 63
r 1.350992 5 4 ack 40 ------- 4 5.3 3.0 3 58
+ 1.350992 4 3 ack 40 ------- 4 5.3 3.0 3 58
- 1.350992 4 3 ack 40 ------- 4 5.3 3.0 3 58
r 1.355392 4 5 tcp 1040 ------- 4 3.0 5.3 5 35
+ 1.355392 5 4 ack 40 ------- 4 5.3 3.0 5 64
- 1.355392 5 4 ack 40 ------- 4 5.3 3.0 5 64
- 1.360859 4 5 tcp 1040 ------- 3 2.0 5.2 4 39
r 1.36952 1 4 tcp 1040 ------- 2 1.0 5.1 9 59
+ 1.36952 4 5 tcp 1040 ------- 2 1.0 5.1 9 59
r 1.371184 1 4 tcp 1040 ------- 2 1.0 5.1 10 60
+ 1.371184 4 5 tcp 1040 ------- 2 1.0 5.1 10 60
r 1.373323 4 1 ack 40 ------- 2 5.1 1.0 6 55
+ 1.373323 1 4 tcp 1040 ------- 2 1.0 5.1 13 65
- 1.373323 1 4 tcp 1040 ------- 2 1.0 5.1 13 65
+ 1.373323 1 4 tcp 1040 ------- 2 1.0 5.1 14 66
- 1.374987 1 4 tcp 1040 ------- 2 1.0 5.1 14 66
r 1.378725 5 4 ack 40 ------- 4 5.3 3.0 4 61
+ 1.378725 4 3 ack 40 ------- 4 5.3 3.0 4 61
- 1.378725 4 3 ack 40 ------- 4 5.3 3.0 4 61
r 1.383125 4 5 tcp 1040 ------- 4 3.0 5.3 6 36
+ 1.383125 5 4 ack 40 ------- 4 5.3 3.0 6 67
- 1.383125 5 4 ack 40 ------- 4 5.3 3.0 6 67
- 1.388592 4 5 tcp 1040 ------- 3 2.0 5.2 5 41
r 1.397253 1 4 tcp 1040 ------- 2 1.0 5.1 11 62
+ 1.397253 4 5 tcp 1040 ------- 2 1.0 5.1 11 62
r 1.398917 1 4 tcp 1040 ------- 2 1.0 5.1 12 63
+ 1.398917 4 5 tcp 1040 ------- 2 1.0 5.1 12 63
r 1.401056 4 3 ack 40 ------- 4 5.3 3.0 3 58
+ 1.401056 3 4 tcp 1040 ------- 4 3.0 5.3 7 68
- 1.401056 3 4 tcp 1040 ------- 4 3.0 5.3 7 68
+ 1.401056 3 4 tcp 1040 ------- 4 3.0 5.3 8 69
- 1.40272 3 4 tcp 1040 ------- 4 3.0 5.3 8 69
r 1.406459 5 4 ack 40 ------- 4 5.3 3.0 5 64
+ 1.406459 4 3 ack 40 ------- 4 5.3 3.0 5 64
- 1.406459 4 3 ack 40 ------- 4 5.3 3.0 5 64
r 1.410859 4 5 tcp 1040 ------- 3 2.0 5.2 3 38
+ 1.410859 5 4 ack 40 ------- 3 5.2 2.0 3 70
- 1.410859 5 4 ack 40 ------- 3 5.2 2.0 3 70
- 1.416325 4 5 tcp 1040 ------- 3 2.0 5.2 6 42
r 1.424987 1 4 tcp 1040 ------- 2 1.0 5.1 13 65
+ 1.424987 4 5 tcp 1040 ------- 2 1.0 5.1 13 65
r 1.426651 1 4 tcp 1040 ------- 2 1.0 5.1 14 66
+ 1.426651 4 5 tcp 1040 ------- 2 1.0 5.1 14 66
r 1.428789 4 3 ack 40 ------- 4 5.3 3.0 4 61
+ 1.428789 3 4 tcp 1040 ------- 4 3.0 5.3 9 71
- 1.428789 3 4 tcp 1040 ------- 4 3.0 5.3 9 71
+ 1.428789 3 4 tcp 1040 ------- 4 3.0 5.3 10 72
- 1.430453 3 4 tcp 1040 ------- 4 3.0 5.3 10 72
r 1.434192 5 4 ack 40 ------- 4 5.3 3.0 6 67
+ 1.434192 4 3 ack 40 ------- 4 5.3 3.0 6 67
- 1.434192 4 3 ack 40 ------- 4 5.3 3.0 6 67
r 1.438592 4 5 tcp 1040 ------- 3 2.0 5.2 4 39
+ 1.438592 5 4 ack 40 ------- 3 5.2 2.0 4 73
- 1.438592 5 4 ack 40 ------- 3 5.2 2.0 4 73
- 1.444059 4 5 tcp 1040 ------- 1 0.0 5.0 7 44
r 1.45272 3 4 tcp 1040 ------- 4 3.0 5.3 7 68
+ 1.45272 4 5 tcp 1040 ------- 4 3.0 5.3 7 68
r 1.454384 3 4 tcp 1040 ------- 4 3.0 5.3 8 69
+ 1.454384 4 5 tcp 1040 ------- 4 3.0 5.3 8 69
r 1.456523 4 3 ack 40 ------- 4 5.3 3.0 5 64
+ 1.456523 3 4 tcp 1040 ------- 4 3.0 5.3 11 74
- 1.456523 3 4 tcp 1040 ------- 4 3.0 5.3 11 74
+ 1.456523 3 4 tcp 1040 ------- 4 3.0 5.3 12 75
- 1.458187 3 4 tcp 1040 ------- 4 3.0 5.3 12 75
r 1.461925 5 4 ack 40 ------- 3 5.2 2.0 3 70
+ 1.461925 4 2 ack 40 ------- 3 5.2 2.0 3 70
- 1.461925 4 2 ack 40 ------- 3 5.2 2.0 3 70
r 1.466325 4 5 tcp 1040 ------- 3 2.0 5.2 5 41
+ 1.466325 5 4 ack 40 ------- 3 5.2 2.0 5 76
- 1.466325 5 4 ack 40 ------- 3 5.2 2.0 5 76
- 1.471792 4 5 tcp 1040 ------- 1 0.0 5.0 8 45
r 1.480453 3 4 tcp 1040 ------- 4 3.0 5.3 9 71
+ 1.480453 4 5 tcp 1040 ------- 4 3.0 5.3 9 71
r 1.482117 3 4 tcp 1040 ------- 4 3.0 5.3 10 72
+ 1.482117 4 5 tcp 1040 ------- 4 3.0 5.3 10 72
r 1.484256 4 3 ack 40 ------- 4 5.3 3.0 6 67
+ 1.484256 3 4 tcp 1040 ------- 4 3.0 5.3 13 77
- 1.484256 3 4 tcp 1040 ------- 4 3.0 5.3 13 77
+ 1.484256 3 4 tcp 1040 ------- 4 3.0 5.3 14 78
- 1.48592 3 4 tcp 1040 ------- 4 3.0 5.3 14 78
r 1.489659 5 4 ack 40 ------- 3 5.2 2.0 4 73
+ 1.489659 4 2 ack 40 ------- 3 5.2 2.0 4 73
- 1.489659 4 2 ack 40 ------- 3 5.2 2.0 4 73
r 1.494059 4 5 tcp 1040 ------- 3 2.0 5.2 6 42
+ 1.494059 5 4 ack 40 ------- 3 5.2 2.0 6 79
- 1.494059 5 4 ack 40 ------- 3 5.2 2.0 6 79
- 1.499525 4 5 tcp 1040 ------- 1 0.0 5.0 9 47
r 1.508187 3 4 tcp 1040 ------- 4 3.0 5.3 11 74
+ 1.508187 4 5 tcp 1040 ------- 4 3.0 5.3 11 74
r 1.509851 3 4 tcp 1040 ------- 4 3.0 5.3 12 75
+ 1.509851 4 5 tcp 1040 ------- 4 3.0 5.3 12 75
r 1.511989 4 2 ack 40 ------- 3 5.2 2.0 3 70
+ 1.511989 2 4 tcp 1040 ------- 3 2.0 5.2 7 80
- 1.511989 2 4 tcp 1040 ------- 3 2.0 5.2 7 80
+ 1.511989 2 4 tcp 1040 ------- 3 2.0 5.2 8 81
- 1.513653 2 4 tcp 1040 ------- 3 2.0 5.2 8 81
r 1.517392 5 4 ack 40 ------- 3 5.2 2.0 5 76
+ 1.517392 4 2 ack 40 ------- 3 5.2 2.0 5 76
- 1.517392 4 2 ack 40 ------- 3 5.2 2.0 5 76
r 1.521792 4 5 tcp 1040 ------- 1 0.0 5.0 7 44
+ 1.521792 5 4 ack 40 ------- 1 5.0 0.0 7 82
- 1.521792 5 4 ack 40 ------- 1 5.0 0.0 7 82
- 1.527259 4 5 tcp 1040 ------- 1 0.0 5.0 10 48
r 1.53592 3 4 tcp 1040 ------- 4 3.0 5.3 13 77
+ 1.53592 4 5 tcp 1040 ------- 4 3.0 5.3 13 77
r 1.537584 3 4 tcp 1040 ------- 4 3.0 5.3 14 78
+ 1.537584 4 5 tcp 1040 ------- 4 3.0 5.3 14 78
r 1.539723 4 2 ack 40 ------- 3 5.2 2.0 4 73
+ 1.539723 2 4 tcp 1040 ------- 3 2.0 5.2 9 83
- 1.539723 2 4 tcp 1040 ------- 3 2.0 5.2 9 83
+ 1.539723 2 4 tcp 1040 ------- 3 2.0 5.2 10 84
- 1.541387 2 4 tcp 1040 ------- 3 2.0 5.2 10 84
r 1.545125 5 4 ack 40 ------- 3 5.2 2.0 6 79
+ 1.545125 4 2 ack 40 ------- 3 5.2 2.0 6 79
- 1.545125 4 2 ack 40 ------- 3 5.2 2.0 6 79
r 1.549525 4 5 tcp 1040 ------- 1 0.0 5.0 8 45
+ 1.549525 5 4 ack 40 ------- 1 5.0 0.0 8 85
- 1.549525 5 4 ack 40 ------- 1 5.0 0.0 8 85
- 1.554992 4 5 tcp 1040 ------- 1 0.0 5.0 11 50
r 1.563653 2 4 tcp 1040 ------- 3 2.0 5.2 7 80
+ 1.563653 4 5 tcp 1040 ------- 3 2.0 5.2 7 80
r 1.565317 2 4 tcp 1040 ------- 3 2.0 5.2 8 81
+ 1.565317 4 5 tcp 1040 ------- 3 2.0 5.2 8 81
r 1.567456 4 2 ack 40 ------- 3 5.2 2.0 5 76
+ 1.567456 2 4 tcp 1040 ------- 3 2.0 5.2 11 86
- 1.567456 2 4 tcp 1040 ------- 3 2.0 5.2 11 86
+ 1.567456 2 4 tcp 1040 ------- 3 2.0 5.2 12 87
- 1.56912 2 4 tcp 1040 ------- 3 2.0 5.2 12 87
r 1.572859 5 4 ack 40 ------- 1 5.0 0.0 7 82
+ 1.572859 4 0 ack 40 ------- 1 5.0 0.0 7 82
- 1.572859 4 0 ack 40 ------- 1 5.0 0.0 7 82
r 1.577259 4 5 tcp 1040 ------- 1 0.0 5.0 9 47
+ 1.577259 5 4 ack 40 ------- 1 5.0 0.0 9 88
- 1.577259 5 4 ack 40 ------- 1 5.0 0.0 9 88
- 1.582725 4 5 tcp 1040 ------- 1 0.0 5.0 12 51
r 1.591387 2 4 tcp 1040 ------- 3 2.0 5.2 9 83
+ 1.591387 4 5 tcp 1040 ------- 3 2.0 5.2 9 83
r 1.593051 2 4 tcp 1040 ------- 3 2.0 5.2 10 84
+ 1.593051 4 5 tcp 1040 ------- 3 2.0 5.2 10 84
r 1.595189 4 2 ack 40 ------- 3 5.2 2.0 6 79
+ 1.595189 2 4 tcp 1040 ------- 3 2.0 5.2 13 89
- 1.595189 2 4 tcp 1040 ------- 3 2.0 5.2 13 89
+ 1.595189 2 4 tcp 1040 ------- 3 2.0 5.2 14 90
- 1.596853 2 4 tcp 1040 ------- 3 2.0 5.2 14 90
r 1.600592 5 4 ack 40 ------- 1 5.0 0.0 8 85
+ 1.600592 4 0 ack 40 ------- 1 5.0 0.0 8 85
- 1.600592 4 0 ack 40 ------- 1 5.0 0.0 8 85
r 1.604992 4 5 tcp 1040 ------- 1 0.0 5.0 10 48
+ 1.604992 5 4 ack 40 ------- 1 5.0 0.0 10 91
- 1.604992 5 4 ack 40 ------- 1 5.0 0.0 10 91
- 1.610459 4 5 tcp 1040 ------- 1 0.0 5.0 13 53
r 1.61912 2 4 tcp 1040 ------- 3 2.0 5.2 11 86
+ 1.61912 4 5 tcp 1040 ------- 3 2.0 5.2 11 86
r 1.620784 2 4 tcp 1040 ------- 3 2.0 5.2 12 87
+ 1.620784 4 5 tcp 1040 ------- 3 2.0 5.2 12 87
r 1.622923 4 0 ack 40 ------- 1 5.0 0.0 7 82
+ 1.622923 0 4 tcp 1040 ------- 1 0.0 5.0 15 92
- 1.622923 0 4 tcp 1040 ------- 1 0.0 5.0 15 92
+ 1.622923 0 4 tcp 1040 ------- 1 0.0 5.0 16 93
- 1.624587 0 4 tcp 1040 ------- 1 0.0 5.0 16 93
r 1.628325 5 4 ack 40 ------- 1 5.0 0.0 9 88
+ 1.628325 4 0 ack 40 ------- 1 5.0 0.0 9 88
- 1.628325 4 0 ack 40 ------- 1 5.0 0.0 9 88
r 1.632725 4 5 tcp 1040 ------- 1 0.0 5.0 11 50
+ 1.632725 5 4 ack 40 ------- 1 5.0 0.0 11 94
- 1.632725 5 4 ack 40 ------- 1 5.0 0.0 11 94
- 1.638192 4 5 tcp 1040 ------- 1 0.0 5.0 14 54
r 1.646853 2 4 tcp 1040 ------- 3 2.0 5.2 13 89
+ 1.646853 4 5 tcp 1040 ------- 3 2.0 5.2 13 89
r 1.648517 2 4 tcp 1040 ------- 3 2.0 5.2 14 90
+ 1.648517 4 5 tcp 1040 ------- 3 2.0 5.2 14 90
r 1.650656 4 0 ack 40 ------- 1 5.0 0.0 8 85
+ 1.650656 0 4 tcp 1040 ------- 1 0.0 5.0 17 95
- 1.650656 0 4 tcp 1040 ------- 1 0.0 5.0 17 95
+ 1.650656 0 4 tcp 1040 ------- 1 0.0 5.0 18 96
- 1.65232 0 4 tcp 1040 ------- 1 0.0 5.0 18 96
r 1.656059 5 4 ack 40 ------- 1 5.0 0.0 10 91
+ 1.656059 4 0 ack 40 ------- 1 5.0 0.0 10 91
- 1.656059 4 0 ack 40 ------- 1 5.0 0.0 10 91
r 1.660459 4 5 tcp 1040 ------- 1 0.0 5.0 12 51
+ 1.660459 5 4 ack 40 ------- 1 5.0 0.0 12 97
- 1.660459 5 4 ack 40 ------- 1 5.0 0.0 12 97
- 1.665925 4 5 tcp 1040 ------- 2 1.0 5.1 7 56
r 1.674587 0 4 tcp 1040 ------- 1 0.0 5.0 15 92
+ 1.674587 4 5 tcp 1040 ------- 1 0.0 5.0 15 92
r 1.676251 0 4 tcp 1040 ------- 1 0.0 5.0 16 93
+ 1.676251 4 5 tcp 1040 ------- 1 0.0 5.0 16 93
r 1.678389 4 0 ack 40 ------- 1 5.0 0.0 9 88
+ 1.678389 0 4 tcp 1040 ------- 1 0.0 5.0 19 98
- 1.678389 0 4 tcp 1040 ------- 1 0.0 5.0 19 98
+ 1.678389 0 4 tcp 1040 ------- 1 0.0 5.0 20 99
- 1.680053 0 4 tcp 1040 ------- 1 0.0 5.0 20 99
r 1.683792 5 4 ack 40 ------- 1 5.0 0.0 11 94
+ 1.683792 4 0 ack 40 ------- 1 5.0 0.0 11 94
- 1.683792 4 0 ack 40 ------- 1 5.0 0.0 11 94
r 1.688192 4 5 tcp 1040 ------- 1 0.0 5.0 13 53
+ 1.688192 5 4 ack 40 ------- 1 5.0 0.0 13 100
- 1.688192 5 4 ack 40 ------- 1 5.0 0.0 13 100
- 1.693659 4 5 tcp 1040 ------- 2 1.0 5.1 8 57
r 1.70232 0 4 tcp 1040 ------- 1 0.0 5.0 17 95
+ 1.70232 4 5 tcp 1040 ------- 1 0.0 5.0 17 95
r 1.703984 0 4 tcp 1040 ------- 1 0.0 5.0 18 96
+ 1.703984 4 5 tcp 1040 ------- 1 0.0 5.0 18 96
r 1.706123 4 0 ack 40 ------- 1 5.0 0.0 10 91
+ 1.706123 0 4 tcp 1040 ------- 1 0.0 5.0 21 101
- 1.706123 0 4 tcp 1040 ------- 1 0.0 5.0 21 101
+ 1.706123 0 4 tcp 1040 ------- 1 0.0 5.0 22 102
- 1.707787 0 4 tcp 1040 ------- 1 0.0 5.0 22 102
r 1.711525 5 4 ack 40 ------- 1 5.0 0.0 12 97
+ 1.711525 4 0 ack 40 ------- 1 5.0 0.0 12 97
- 1.711525 4 0 ack 40 ------- 1 5.0 0.0 12 97
r 1.715925 4 5 tcp 1040 ------- 1 0.0 5.0 14 54
+ 1.715925 5 4 ack 40 ------- 1 5.0 0.0 14 103
- 1.715925 5 4 ack 40 ------- 1 5.0 0.0 14 103
- 1.721392 4 5 tcp 1040 ------- 2 1.0 5.1 9 59
r 1.730053 0 4 tcp 1040 ------- 1 0.0 5.0 19 98
+ 1.730053 4 5 tcp 1040 ------- 1 0.0 5.0 19 98
r 1.731717 0 4 tcp 1040 ------- 1 0.0 5.0 20 99
+ 1.731717 4 5 tcp 1040 ------- 1 0.0 5.0 20 99
r 1.733856 4 0 ack 40 ------- 1 5.0 0.0 11 94
+ 1.733856 0 4 tcp 1040 ------- 1 0.0 5.0 23 104
- 1.733856 0 4 tcp 1040 ------- 1 0.0 5.0 23 104
+ 1.733856 0 4 tcp 1040 ------- 1 0.0 5.0 24 105
- 1.73552 0 4 tcp 1040 ------- 1 0.0 5.0 24 105
r 1.739259 5 4 ack 40 ------- 1 5.0 0.0 13 100
+ 1.739259 4 0 ack 40 ------- 1 5.0 0.0 13 100
- 1.739259 4 0 ack 40 ------- 1 5.0 0.0 13 100
r 1.743659 4 5 tcp 1040 ------- 2 1.0 5.1 7 56
+ 1.743659 5 4 ack 40 ------- 2 5.1 1.0 7 106
- 1.743659 5 4 ack 40 ------- 2 5.1 1.0 7 106
- 1.749125 4 5 tcp 1040 ------- 2 1.0 5.1 10 60
r 1.757787 0 4 tcp 1040 ------- 1 0.0 5.0 21 101
+ 1.757787 4 5 tcp 1040 ------- 1 0.0 5.0 21 101
r 1.759451 0 4 tcp 1040 ------- 1 0.0 5.0 22 102
+ 1.759451 4 5 tcp 1040 ------- 1 0.0 5.0 22 102
r 1.761589 4 0 ack 40 ------- 1 5.0 0.0 12 97
+ 1.761589 0 4 tcp 1040 ------- 1 0.0 5.0 25 107
- 1.761589 0 4 tcp 1040 ------- 1 0.0 5.0 25 107
+ 1.761589 0 4 tcp 1040 ------- 1 0.0 5.0 26 108
- 1.763253 0 4 tcp 1040 ------- 1 0.0 5.0 26 108
r 1.766992 5 4 ack 40 ------- 1 5.0 0.0 14 103
+ 1.766992 4 0 ack 40 ------- 1 5.0 0.0 14 103
- 1.766992 4 0 ack 40 ------- 1 5.0 0.0 14 103
r 1.771392 4 5 tcp 1040 ------- 2 1.0 5.1 8 57
+ 1.771392 5 4 ack 40 ------- 2 5.1 1.0 8 109
- 1.771392 5 4 ack 40 ------- 2 5.1 1.0 8 109
- 1.776859 4 5 tcp 1040 ------- 2 1.0 5.1 11 62
r 1.78552 0 4 tcp 1040 ------- 1 0.0 5.0 23 104
+ 1.78552 4 5 tcp 1040 ------- 1 0.0 5.0 23 104
r 1.787184 0 4 tcp 1040 ------- 1 0.0 5.0 24 105
+ 1.787184 4 5 tcp 1040 ------- 1 0.0 5.0 24 105
r 1.789323 4 0 ack 40 ------- 1 5.0 0.0 13 100
+ 1.789323 0 4 tcp 1040 ------- 1 0.0 5.0 27 110
- 1.789323 0 4 tcp 1040 ------- 1 0.0 5.0 27 110
+ 1.789323 0 4 tcp 1040 ------- 1 0.0 5.0 28 111
- 1.790987 0 4 tcp 1040 ------- 1 0.0 5.0 28 111
r 1.794725 5 4 ack 40 ------- 2 5.1 1.0 7 106
+ 1.794725 4 1 ack 40 ------- 2 5.1 1.0 7 106
- 1.794725 4 1 ack 40 ------- 2 5.1 1.0 7 106
r 1.799125 4 5 tcp 1040 ------- 2 1.0 5.1 9 59
+ 1.799125 5 4 ack 40 ------- 2 5.1 1.0 9 112
- 1.799125 5 4 ack 40 ------- 2 5.1 1.0 9 112
- 1.804592 4 5 tcp 1040 ------- 2 1.0 5.1 12 63
r 1.813253 0 4 tcp 1040 ------- 1 0.0 5.0 25 107
+ 1.813253 4 5 tcp 1040 ------- 1 0.0 5.0 25 107
r 1.814917 0 4 tcp 1040 ------- 1 0.0 5.0 26 108
+ 1.814917 4 5 tcp 1040 ------- 1 0.0 5.0 26 108
r 1.817056 4 0 ack 40 ------- 1 5.0 0.0 14 103
+ 1.817056 0 4 tcp 1040 ------- 1 0.0 5.0 29 113
- 1.817056 0 4 tcp 1040 ------- 1 0.0 5.0 29 113
+ 1.817056 0 4 tcp 1040 ------- 1 0.0 5.0 30 114
- 1.81872 0 4 tcp 1040 ------- 1 0.0 5.0 30 114
r 1.822459 5 4 ack 40 ------- 2 5.1 1.0 8 109
+ 1.822459 4 1 ack 40 ------- 2 5.1 1.0 8 109
- 1.822459 4 1 ack 40 ------- 2 5.1 1.0 8 109
r 1.826859 4 5 tcp 1040 ------- 2 1.0 5.1 10 60
+ 1.826859 5 4 ack 40 ------- 2 5.1 1.0 10 115
- 1.826859 5 4 ack 40 ------- 2 5.1 1.0 10 115
- 1.832325 4 5 tcp 1040 ------- 2 1.0 5.1 13 65
r 1.840987 0 4 tcp 1040 ------- 1 0.0 5.0 27 110
+ 1.840987 4 5 tcp 1040 ------- 1 0.0 5.0 27 110
r 1.842651 0 4 tcp 1040 ------- 1 0.0 5.0 28 111
+ 1.842651 4 5 tcp 1040 ------- 1 0.0 5.0 28 111
r 1.844789 4 1 ack 40 ------- 2 5.1 1.0 7 106
+ 1.844789 1 4 tcp 1040 ------- 2 1.0 5.1 15 116
- 1.844789 1 4 tcp 1040 ------- 2 1.0 5.1 15 116
+ 1.844789 1 4 tcp 1040 ------- 2 1.0 5.1 16 117
- 1.846453 1 4 tcp 1040 ------- 2 1.0 5.1 16 117
r 1.850192 5 4 ack 40 ------- 2 5.1 1.0 9 112
+ 1.850192 4 1 ack 40 ------- 2 5.1 1.0 9 112
- 1.850192 4 1 ack 40 ------- 2 5.1 1.0 9 112
r 1.854592 4 5 tcp 1040 ------- 2 1.0 5.1 11 62
+ 1.854592 5 4 ack 40 ------- 2 5.1 1.0 11 118
- 1.854592 5 4 ack 40 ------- 2 5.1 1.0 11 118
- 1.860059 4 5 tcp 1040 ------- 2 1.0 5.1 14 66
r 1.86872 0 4 tcp 1040 ------- 1 0.0 5.0 29 113
+ 1.86872 4 5 tcp 1040 ------- 1 0.0 5.0 29 113
r 1.870384 0 4 tcp 1040 ------- 1 0.0 5.0 30 114
+ 1.870384 4 5 tcp 1040 ------- 1 0.0 5.0 30 114
r 1.872523 4 1 ack 40 ------- 2 5.1 1.0 8 109
+ 1.872523 1 4 tcp 1040 ------- 2 1.0 5.1 17 119
- 1.872523 1 4 tcp 1040 ------- 2 1.0 5.1 17 119
+ 1.872523 1 4 tcp 1040 ------- 2 1.0 5.1 18 120
- 1.874187 1 4 tcp 1040 ------- 2 1.0 5.1 18 120
r 1.877925 5 4 ack 40 ------- 2 5.1 1.0 10 115
+ 1.877925 4 1 ack 40 ------- 2 5.1 1.0 10 115
- 1.877925 4 1 ack 40 ------- 2 5.1 1.0 10 115
r 1.882325 4 5 tcp 1040 ------- 2 1.0 5.1 12 63
+ 1.882325 5 4 ack 40 ------- 2 5.1 1.0 12 121
- 1.882325 5 4 ack 40 ------- 2 5.1 1.0 12 121
- 1.887792 4 5 tcp 1040 ------- 4 3.0 5.3 7 68
r 1.896453 1 4 tcp 1040 ------- 2 1.0 5.1 15 116
+ 1.896453 4 5 tcp 1040 ------- 2 1.0 5.1 15 116
r 1.898117 1 4 tcp 1040 ------- 2 1.0 5.1 16 117
+ 1.898117 4 5 tcp 1040 ------- 2 1.0 5.1 16 117